<?xml version="1.0" encoding="UTF-8"?>
<VTKFile type="UnstructuredGrid" version="0.1" byte_order="LittleEndian">
<UnstructuredGrid>
<Piece NumberOfPoints="9372" NumberOfCells="48925">
<PointData>
<DataArray type="Float64" Name="von_Mises_&#x5e94;&#x529b;" Format="ascii">
496757.82558510883
473610.70661137946
276584.8298397931
367411.0654678549
494083.63982395834
384573.0954394028
482439.18595722853
274608.848618879
368321.19495138334
467075.7321912462
266095.47122205264
295089.89966051636
269693.6730280134
290573.75389528205
226210.8578536212
258999.11595525828
205580.28175957315
223911.15854103203
205629.7010635877
196419.72658616985
200082.20344556507
289539.69483309187
244700.31961436663
239540.5044369403
225676.04112530051
196908.88779893075
337023.4209006507
487641.1358287609
214482.7242141815
263466.38525929325
269942.1025370135
477490.8910162462
320730.2323556454
229264.76421235056
281213.8480066933
228908.0587211641
163376.3330277307
208040.4118210494
184164.48057367792
154262.4240941703
194229.81644091674
171809.20690470064
163718.6720200518
222313.46071802752
178105.4223493558
189022.13271846483
139931.46470575882
180580.05588008274
187923.81455097804
477742.2238105484
286037.3479530527
349387.9426895563
150480.34631172536
477719.8738161526
475246.2217570413
374930.8244010331
278848.2151548509
283236.0605253316
296019.18091391894
480344.0154713822
384242.6307481148
247139.33246750606
199366.5536753786
218463.35053274527
238793.2369207404
273529.4684815798
343671.06223141
458764.34782107547
259029.41552730076
357870.3609832529
273651.2575340184
286354.5171330064
250389.5094234805
200604.64942682371
148432.52491645745
129639.3725998208
151281.92621442385
116881.90578503086
154222.83182869587
135048.24307538493
113803.65359112027
132167.01138764666
146637.60942047072
161233.25044556658
133829.1382858499
146573.87204162977
106868.8394132923
95675.72106963157
125629.66419473723
170048.103795324
179256.43662051682
197393.05400029023
196620.12579857206
151753.36656732592
145083.53886288224
124082.35785463512
144276.4354365237
122736.5850780975
203624.5226833007
262274.7114959121
209119.80915214922
220757.5927602393
218416.99153073807
191019.60898460407
187599.94726282675
164593.2792123819
207303.38703641988
211036.9602370531
177573.379758961
199765.56801877555
177337.12529539366
115874.4462728349
120250.15788877309
110200.86756924394
94370.16022995603
102485.0229246609
97619.96980186061
113604.30014195839
112432.31495380253
114422.4155371381
96127.65372410262
81178.53341843667
131312.41379428227
82139.05804164198
104442.20207457573
126206.68116309156
97701.2579454896
115265.31814496181
74683.51041195313
95183.53109509319
63595.65159406358
83161.4573239304
100569.34385133923
151152.88556395922
168098.42599454528
150599.08477166286
148540.53377048782
131723.518701677
152900.59422948086
167462.42834342972
172576.76337004473
135224.6879471787
125195.80530859521
123558.17656440263
147942.97664162482
138264.49437731836
112647.85887506674
108817.8548357826
132463.349447276
161151.79648389213
144274.41049836227
94021.10090073517
87533.98574789621
69088.6721495806
51643.50218236505
73390.62194506178
79483.64352880887
95487.77315588928
110410.05552288309
1272896.176200151
1067919.7263488632
1273013.9916484896
1277265.4800700028
71626.4007909292
51664.49002099548
62913.94974083192
37911.69151854616
57040.736590830355
81428.9074968923
82161.10025792308
67145.10752159807
67037.72899131825
97850.33141968337
65891.03078010795
95076.26167373238
1269455.8234110582
1060908.4608004845
1279985.569435679
1271385.1485700007
1038702.7227671769
999331.0971767996
999289.2253821098
1031458.8337390118
1070697.4378706275
1273878.1114991093
1271931.9444945653
77265.55397902026
113029.34366961797
122061.42029698088
96457.28764749074
81073.74594856797
91701.74149600942
93514.09706130327
91508.03577630057
81271.45228519077
95987.66949841786
125747.49839022422
116455.18646219248
82563.44882874051
51680.761721136776
75643.28131396067
60268.08342442743
26667.161106865704
57245.52193114057
41072.15897830529
77165.35706794003
65207.27961805628
77130.49290558773
1070713.0417447677
1272475.8621836833
1051327.5439308642
1273340.2906184015
15449.910779163745
38098.60649528453
9220.52404578304
47518.14952715003
27552.3947664866
38853.96857953393
36744.42048870088
9146.337088531882
32853.555414817216
12046.9594645378
51875.7849269573
63815.04282898433
70717.97181571666
27391.073800398415
38570.00447506552
1029290.0342817252
1131887.3542365301
1274274.6859294889
1018444.5245794636
1054923.9542444914
1051422.1266709964
1280999.020658913
1278928.9431300208
40774.198528455716
16888.912720170803
32214.178537332606
93614.61087106375
65411.21350740214
37261.413893567624
50900.99499629303
74612.85021248495
83206.17167096306
50489.13577169071
65030.68148144688
78485.75115681787
58854.29051485206
25893.69400563351
51853.832407158465
57102.556217349724
39273.45623493039
45771.52250031594
45369.98832752637
62687.98260167486
14908.149100117189
38511.1785174061
39302.46318559783
9024.551860311116
1050224.2058297016
1052690.4572981743
1059761.4864358169
1279764.1719622258
1295310.389112123
1092546.188822188
11894.772671268554
35598.01946174926
30557.070766639612
20241.97942092025
20911.539940131133
37973.01362433615
37867.18087520616
34008.15460122855
11883.864217987446
15206.529764495172
42739.07248586141
53325.60793075351
49648.969555242955
16029.071486586801
9135.769140400638
1294952.6021690068
1079096.4447908092
1115427.0309229519
1030052.7214807658
1327929.0134672509
1328665.3422298091
1040646.4075535215
1342930.703149208
43969.607040006835
43491.9194649832
29799.05332782779
19754.81572018563
38962.055713616406
40088.44139795949
72854.7422617657
62838.06239271906
36785.78020454382
24895.83642087378
44312.73032662132
25597.611134277005
57918.670942246325
37553.99043818375
65490.49744629846
73090.29835345635
11895.853474912858
9057.155592301722
50441.36626218772
33826.30144393819
14847.502377221506
37411.018079167676
39827.05350876317
9044.56547879278
21355.6951726425
37802.2521620035
12136.763947203446
1138156.134740309
1321017.352496915
1345619.16636929
1064365.5413598684
47581.98598714462
43460.64490765457
30791.62924504097
52109.746731699895
40465.19649541945
49414.171564988705
47020.12630671145
39646.44966146899
65028.14312653701
57260.349109678005
63255.46049128358
58851.46750203079
49408.37618753946
64565.32912076257
72931.92583124485
52106.14705592483
11675.928760260598
48934.801894307566
48039.400393280994
1038826.4346639503
1140936.136028895
1146686.5441555826
1422406.3232739428
1437577.2669402265
1461483.6697506066
1068534.648123212
56804.00115389599
39725.7368904035
50043.39427743923
29515.34692061752
50959.271576733
64376.190322380164
51911.3904002807
68328.70114780616
59439.08352098878
68043.48768633211
49277.24771573198
31270.069255766273
21076.631347602543
43666.49851086675
58405.96510931581
14468.760906592282
55913.41469333085
51255.91454697002
41000.51826643254
35350.76063983497
42308.90191999868
39665.72548257334
21277.35193679359
12040.362803025972
40774.48461171268
58308.91549722953
48545.25785585348
41229.10484243523
50581.323630493804
56982.51676446623
30954.603761526218
40020.39685681794
58642.876089885714
51079.598838379585
1422703.8281429915
1023781.1014823741
1023292.8977849161
1470697.315705893
1596950.2417642048
1768545.5970649563
1610799.4153982927
1762142.8675176585
1515151.438918725
1823342.8466151818
1799397.7330264833
1406851.5914403307
1362622.6732369233
1376462.6892203223
1456325.9872710302
1418478.7498226988
1345641.1991109473
1391900.0791198718
1460862.1850405603
1523304.8538978146
1382681.695253382
1433472.9545232207
1766996.798811819
1618509.9364678466
1378263.5500865667
1326583.483550328
1477081.2511148958
1279429.651383301
1299601.3281634473
1467299.068835762
1611939.1240390874
1385769.291718445
1623207.3304568387
50118.81337614176
74543.30221607002
59332.42014604474
68444.96506976102
64442.236284815495
78517.72606227471
74125.38053123413
85098.2573502774
87167.06249347213
77855.87118571805
81349.54829576553
92883.98301072507
98351.86653154306
86514.94333215209
1388991.679567988
1046592.4762056464
964326.1198699077
1347236.16551363
1027947.2883891047
1373759.503667585
1141180.494730583
1357959.1173637628
1088095.5239388915
1271285.9147876212
1336708.9193096608
1292598.0830810182
1255608.8435413947
1283240.4433530574
1311311.6541687155
1317341.2120971484
1141337.4698369084
1335454.9200988435
1305304.350847389
1418144.867616579
1480720.403120125
77358.9826268066
67981.2709142539
89660.42730687739
86440.87516166088
101986.88650251723
95540.63145349151
82785.47456932606
1270911.3643660215
1356209.870097978
54354.18577710183
62179.261534689795
63276.419758126605
40822.71800967655
50942.47113600505
30910.97282835742
51006.147607604056
59700.17034593921
65576.97595417194
69216.05225338152
80097.56855990423
82579.16830477446
63890.50634498292
69248.68139681335
70894.30437878653
60396.32443011352
78198.77679092177
87473.85532587068
78488.95795417104
57334.891487962035
68887.38742198724
69907.66011765042
60086.63517152813
81947.31492186431
1349326.8170612664
1024355.4522647181
1520597.2366123577
1373793.9889489533
1405034.4107530995
1470219.7844632787
1428255.9825668593
1613289.6542742234
1416808.4238451356
1329522.8002955976
1417001.97828626
1727077.6506303689
1779463.7090485375
1524748.56004937
1734889.1222462528
1662319.565449091
1554493.0464709944
1397494.3169183955
1402714.7143591857
1487299.4787562445
1305570.3914767585
1474517.9429211514
1312046.3925702237
1645318.7352434592
1268034.4002718541
1325966.9105554724
1396517.2447483886
1345672.5878051738
1344017.9236477194
1768474.2353055177
1381576.8497103204
1460615.5573890721
1782227.4800662715
1431927.6690445615
1787476.7464843704
1363810.9843413993
1641977.3050309846
1442629.3318920655
1373381.1129194512
1621678.9742814356
1517047.8298650833
1796168.6781860038
1510448.3116111418
1804084.2716700218
1403034.383947763
1384467.0420152505
1481350.8325884535
96232.27452196107
135257.714328267
133523.27159403582
114864.31883028784
124088.2552382512
103727.3304861761
105617.54345564575
79345.09425615851
87658.58894610626
88041.08236663233
78239.66372558824
84024.66931434428
79576.7965043122
87096.8765259666
96225.71090435507
95864.05257044964
104687.44543871014
113835.58046460983
104882.7381249891
105196.64317881507
101037.45737870227
96600.04708028327
113154.0983875261
105191.58739489327
124497.624227294
115996.07228560573
129891.60719057545
135032.48600893433
1327253.3700452812
1053861.4962809065
1334602.0360099976
1337463.9016186653
1061342.198897928
1326034.3489892408
1087204.5307857324
1333002.7141600372
1087681.8985488145
1273247.0116169301
1291991.551905327
1307503.3637303135
1339819.3028828267
1197494.0506051637
1212540.0547731353
1262493.2656755776
1295274.3961618564
1332793.9935275002
1325442.7314957243
1053645.4711833545
1113942.3359428106
1122468.815368741
1331021.0557488308
1293825.528589004
1287339.3604470245
1343598.3718989275
1303417.0035819446
1351444.8708874965
1313536.5872100266
1272846.862785298
1267870.6952852958
1260563.0929270166
1359214.342653052
1257145.1805365048
1278882.9568417573
128665.60829642651
114267.10124138625
103748.43424833435
118854.01470547309
104997.30905882137
108736.55187122745
124100.12822451298
127988.49130611039
139069.39405715378
134751.62807973562
143471.60251265904
143615.4599428049
155848.44799128067
1356104.3886858746
1296803.4096124466
1315299.8350878616
1316940.0650347543
1324921.6113002854
156626.9581275401
141381.71994178256
154501.2520167104
190430.49093529108
178658.97532689772
165881.2124524838
144314.16903554226
133518.21626741698
156889.92763129462
50558.79570671383
63359.14289520078
61175.15723179007
88896.33052514335
86214.64765098694
87667.9123840721
86690.88574784291
96989.33694346283
110315.0908595488
105625.91285580958
114809.14048713678
126627.38167802496
124072.32403006952
132583.6780486117
98138.22696520555
103840.55027850413
96457.24925850664
97947.93801107831
78577.07180577012
69460.92010296368
90275.3320336707
75356.96907234481
103790.37061215524
96698.53631562245
126957.86036032934
114928.74343493539
133368.092271776
1056586.5931859247
1330193.534093555
969858.1739444721
1505396.1864680182
1779819.7824219568
1456347.9445787705
1783134.7448681972
1519769.9462891559
1806544.613201275
1775053.4543521677
1522741.0641115443
1369161.504997059
1710067.7283055817
1406083.3865653982
1715352.674867538
1465205.460740308
1363594.8291017343
1722347.8124000689
1581570.9641396212
1363103.1416817375
1369510.2841224128
1353955.7654679657
1346323.3560129656
1329319.6050736308
1307270.4882190556
1351137.9980335205
1410257.3580340848
1315099.151430843
1311557.4843089473
1324492.9150380876
1315143.5468105928
1318560.0349770717
1451079.2038190865
1399799.0882078286
1247509.1708474837
1345272.9017578398
1347462.6428675333
1425646.5806455805
1442708.490020712
1485023.6648602646
1261708.545847377
1325674.6372919704
1300349.2316552268
1463127.415721584
1403684.8547672161
1337609.2123558123
1523793.6806068039
1414656.9084047447
1458846.789434048
1372224.1951371706
1619423.671583265
1610923.0176943392
1404210.970388418
1367883.57631945
1629472.1425976153
1376352.3768720329
1264333.6515295834
1536345.9288653242
1784256.9691917223
1711305.3925611912
1759068.3455919274
1386290.1544329142
1621999.0168505057
1629431.29198746
1393178.9993805736
1511458.004262738
1754101.423997529
1779078.3049236427
1400023.1318696227
1440579.2701189315
1462384.240044916
1777106.462630547
1422132.817434636
1769837.2092258325
1419888.7577001946
1773546.3841034498
1556205.1928913419
1771754.1556474764
1781773.4475505585
1297088.3965994674
121961.80460548891
125190.85844496048
114208.03839325259
115519.08480945158
153701.56537889707
140857.49007001074
158266.6520280617
140203.82608086363
142124.7055043551
156175.5063427013
152124.15806622754
160270.1521241244
142526.29672340397
162961.54601141185
174666.58394211874
170409.57569925315
125168.22792893427
123472.62190958657
146754.16338281654
131859.26046079167
136207.4412053009
117733.44419824671
193587.8259337709
1072551.7810601487
1331652.7795361893
1220135.0787061134
1194735.4634532991
1337787.3254225329
1136693.4335457296
1124441.5838147379
1205885.3436815932
1346463.7808395533
1331778.6886692785
1219179.2625499927
1059791.8698741
1343264.1354698215
1078780.907452283
1143675.7138953223
1101662.9005923134
146798.28784142426
144727.84297689633
171740.39795817298
179333.0915303834
177295.92458781897
167728.84363893195
175246.6072183896
215918.79277566573
191928.57168779304
211692.91964282235
215131.32863089483
200971.7389036535
1335520.8232941953
1321891.3440597546
1369391.159579731
1308662.1292397717
1321982.8586952894
1356381.5481119852
1583206.158613451
1325725.3806814973
1445160.5574206812
1425995.2515012813
1571137.7324825483
1698532.1128695444
1357336.091449646
1336883.591551187
1320815.900187252
1353024.6397018118
1383203.9611986147
1413742.4355459304
1408604.384834793
1479127.3516018894
1424239.0004732083
1386640.3785957634
1507185.749598176
1478193.0617689171
1494078.7996872757
183773.16743008583
169216.56379438058
213548.3525379723
152864.09201607143
169850.86759503998
167155.80846614507
187282.12696833702
190847.24668699558
193993.81170216962
185311.85681039424
212059.43220153466
184131.88907369558
212643.35275843856
189086.84725192725
175419.95318565235
166541.87863392153
112113.04063716765
105867.30263538005
122795.31414126081
114837.60945213969
123725.18670995084
105428.58832948975
153193.57838009167
153939.72124415103
107437.05057986364
115556.26916903631
120829.5402980424
127692.00806172729
87625.00203693779
97742.46196677918
91343.29254023735
108795.64657254455
173887.34254178972
177765.40704448454
135374.52064426648
180578.91133175936
135728.39310185655
153429.39256439143
133469.09541832324
123513.24258632123
135932.3062855811
149750.07074362854
144026.8089864377
167332.76490692297
182656.05492082442
195956.08157016136
191573.3742207697
1378275.8430856576
1593478.080217722
1440619.092646973
1364025.1139969837
1466421.1803542762
1807980.1982636228
1347009.2080202913
1710873.506595661
1440427.9111807095
1407317.8330029112
1413116.2094338082
1608406.6217323083
1729786.3535715546
1530330.6734995947
1731469.8815220299
1494753.313376901
1809291.001887321
1697675.45041699
1505707.1961042264
1790185.5461873494
1348535.832172646
1377140.0519081948
1315423.8034250361
1326712.9537253685
1370732.8852202664
1562784.7541928976
1429441.56658252
1573025.4966292183
1436383.693523498
1400062.161145908
1454318.142722929
1315724.5522785874
1354929.7415674627
1318973.5256289176
1360641.161875074
1340896.7079611646
1342597.0560464717
1329830.003349599
1343195.0174919025
1407755.8674418323
1409046.3020046277
1406432.305125649
1492051.3861709163
1335300.5265959
1357740.750434235
1340910.2800938468
1326043.0817903636
1367406.5477537797
1340961.7877118343
1362540.284318629
1370194.7754876635
1343240.1228920193
1363307.371933593
1372536.1727000347
1188002.915702467
1610145.7592848218
1351061.1215726337
1780931.4162685447
1324693.4156804527
1279347.375113705
1340766.8302857573
1389522.216234989
1617748.171163873
1473308.8465985272
1521785.8982434415
1368995.636025197
1401187.7801074253
1353550.1608838285
1688599.196693382
1389440.3070687396
1576674.8045032215
1387006.343520978
1428922.829616637
1511977.690575358
1478419.2830085831
1734834.3490136676
1740985.9696791167
1758500.0143776345
1486525.7016961824
1291654.0500480034
1393840.361438159
1348308.1507586578
1349610.2656703962
1443290.700639301
1424006.044275548
1497516.2077961238
1309927.1250852644
197761.3278439169
186194.86698174995
213196.5307628451
220535.83014793563
224176.80182144383
248521.31873753085
217099.61200314405
272248.91375432303
262572.027233952
276095.7337536047
225613.85989734976
212384.7019822351
196967.84274032875
216620.64229550736
217031.37426316008
231895.68751117378
214518.5396209454
253236.2864298937
213380.52948252455
256598.03469640593
226786.34874798375
237863.84646031438
254767.52974208514
267706.3531515233
238403.79568634633
245177.5713649987
265941.508750935
249017.60998935677
270433.726046307
260505.02868947273
267893.1198300508
363584.6436226827
283048.82591455634
304449.60137231776
382739.20304421824
365676.1526469354
396851.72829555586
665936.4967517435
370172.7309652706
270746.6187087604
274066.1399705662
207631.03364764163
252969.043470945
291193.6094095441
423292.54940677626
397045.574593955
691067.7912052426
653986.364130679
364073.98458922433
403653.29175701743
719032.7999215983
1316675.5967177665
1339260.3128571904
1365890.5261102447
1314594.791054486
1352857.523339361
1321522.288916322
1309507.2537457554
1334905.5667930727
1375477.8451645852
1369394.9680215742
1339627.6215964477
1389881.5426182633
1430366.6091630154
1403696.1897737295
1525240.043377708
1523396.9395465418
1505860.1608481016
1523361.2691101301
1523570.1375489677
1392169.5898421525
1417056.21718439
1428192.6493347401
1517805.563817338
1532528.493605045
1455909.588203046
1526196.6717911996
1378862.7804301425
1380324.4067466902
1444720.2591153192
1437672.7027562507
1410171.6292598099
1460871.330952195
1530018.905962202
1381533.4753693219
1392301.4995199987
1390132.6384595362
1455817.8305427697
1539092.8117423614
3313519.863610132
3186372.3601883915
2399768.054167583
3146519.5463893577
2997370.1451544412
3138189.6363982563
2171753.363931998
2165868.164296864
3087084.081774401
2162197.90797413
2929889.873267737
2935928.1477980614
258163.73483279944
238509.9351679875
128331.62859629678
127452.59313718439
151420.49671460403
143491.79043104232
195103.19528602168
188241.8883164356
179771.02687462105
154282.08236093994
239031.33402845397
214234.42189583555
213878.28168548213
170909.23870308258
158605.0173086041
166081.35445280178
183631.03829011865
2150373.841979956
3248690.888866246
3205671.7060018294
2294844.8068255056
3274580.360140895
3256363.705906914
3121808.7899786504
2529252.8866120027
3219137.1435970915
3210402.1799973687
2395232.986774145
2095687.9100390985
2783408.007989354
2851686.483713046
2761336.3597186743
2315846.435350389
3164970.7678218517
2284139.7314409404
3111754.0168585875
2373673.3200832116
3083970.732237496
3082973.7745643086
2014486.1514650125
2943813.095881247
1304931.5129329502
1389346.7812603435
1582945.6594683873
1363740.6776432125
1337681.1850467047
1372057.587137453
1387319.5256101447
1328802.4967690164
1320065.8671236024
2935639.3094465826
2420028.539124708
2963601.0119510964
1357534.9105481815
1424498.3483444864
1436604.3090751357
1359170.9745686685
1376689.6378439604
1634686.4923397093
1328169.9287186665
1332342.538260124
1336977.517187459
1309920.367709455
1332446.4256663132
1395801.6270377217
1374984.6866385865
1331562.147769274
377500.7505017671
297897.3202905945
298389.7145324859
359704.1600151346
384168.1703811286
641623.2246760727
311382.8762699334
638247.4407784698
381453.5091074739
259017.99457665245
274924.085373883
289610.7242122577
413737.73834703706
362960.1905160389
662309.81087923
408780.5933614456
285029.9824721474
333487.17736089736
393176.99696912727
681964.7908480372
334968.43777431396
324469.7899750005
343752.9581566714
514459.8919637947
336146.4917398084
521799.85882416426
523003.27820572944
679338.2428252356
543316.9185129137
396407.5296699398
428231.33027064224
665299.1628247801
341485.71576261113
271077.04670827225
238370.23885962536
333241.65486187337
354421.06667783536
572099.2744537583
597868.6415060525
1459717.6884153427
1353570.4286003795
1411736.0097858587
1470949.859934871
1440018.5266192749
1387481.2007553729
1460076.3228199899
1541150.6784298709
2940435.005246945
2282973.1732302047
2060785.9088138198
2538642.9763785442
2613488.757240256
1465809.832224748
1542434.1074812412
1414791.4238118376
1559384.741395904
1431353.7612956886
1540082.8940340546
1549805.667458178
1424287.4268715486
1540446.4080431808
1536983.7451000789
1550995.4540738964
1453143.0986334549
1422928.35694356
1385445.7433745011
1452394.9289647453
1481482.0062483652
1547063.5781274852
1536898.7015136837
1456430.7411573248
1546179.5733327668
1546768.8591375896
1548647.7337644044
2085692.1206483182
2583311.810618185
2118466.0521846646
2274591.3886775854
2063704.0454292446
1795337.0480749668
2769275.380525832
1951717.2009765739
2531895.1716780174
2470289.7329411977
2483846.4255823283
1629294.207717322
2390412.856398524
2519299.817227117
2425768.272361683
2386105.6186098633
1794519.1089109853
404970.84430904663
291129.96354707464
216006.75135219417
173361.42055156824
195303.89261339707
223108.71955703894
205001.89394242142
247974.9993585241
271979.49786826945
3048195.317150539
2984370.6722902986
2952625.306412512
2142006.5781374318
2189804.266541217
1976830.0648752183
2979596.508173381
1947696.4036053163
2317869.396551546
2885430.3270738726
2907992.9990110747
1872197.5792469997
2812330.711184667
2895054.7754884143
1848443.0628845475
2113616.0334775327
2778753.5924126217
1601476.0234022152
2527193.4630251266
2617592.725599604
1783095.3830704594
1424187.7675102158
1840332.6071979778
1847784.78912546
2694276.6019585147
2679337.1467005233
2694431.5673306184
1799547.9748533133
1843153.867328702
2621289.4304579655
1801595.8451368993
1928433.700517622
2613563.823899923
1849778.4340843924
2540636.7612848436
1872868.6621889356
2490415.444368524
2374719.3226396535
1908535.1490790697
2480617.058714632
2059385.507801401
2089890.2837862151
2025175.6007499623
2884377.8994863094
2701742.4994113157
2686731.0260923347
2687548.0146854375
2180206.122763037
1822736.712754399
2107152.563116204
2696768.8178843106
1846602.0925334385
2648699.0314569
1945841.646217341
1439349.5114497887
2521074.092472507
2814410.1479895865
2577571.1231940836
308642.825846561
806739.9762314275
529138.6668335675
1811023.4797037607
2373735.101999431
2319512.985069546
2263840.288261352
1739684.4719362406
1341447.9275156318
362606.5994086423
349328.00130100135
320587.511044388
313422.4467692487
550052.2164068184
675883.1499111522
400406.8803614854
2809997.0974087915
2085377.6922165672
2623518.4493896267
1913898.5250913068
2635297.2475992814
2422468.5349460514
1473541.0927903054
1546563.2074956878
2260085.487383598
1814999.8651367002
2332224.1290043783
1875697.4827931437
1937239.0062959965
2247276.5787139544
2175414.8790598107
1591607.0102397492
1636116.6444046502
1442049.9443718023
1567613.1127434336
1457548.9594106113
1448529.9122609326
1555776.6435931479
1427147.587218153
1580116.37114424
1553820.5304091289
1413812.8936137785
1457307.6280345847
1548653.8816755458
1423489.0711871043
1903226.167088928
2009628.2377222036
1670568.8750114026
1483313.9562592434
1780392.402628505
1608332.9997111526
1854954.515236163
2005309.125729986
2103579.9790411037
1765823.0236941066
1387928.6801855194
2391729.219482425
1600505.363407803
2415327.9791534413
2357018.46211702
1437509.366670416
1292112.6698716825
1507828.663049742
2458002.962967348
1863394.4119665364
1899516.3470863104
1756332.1706890773
1714487.4040949359
2315959.8625281127
1675315.031707047
1742132.4302782773
2193880.0936979917
1676157.3725887754
2344619.4129649373
1774060.6712941476
2286864.9204923916
2143565.194207744
2255146.5559979836
1661899.940587279
1682602.982949781
2303854.1308771158
1518735.689480066
1736549.5635090992
2016594.2580723176
2362122.662871803
2086610.5924807645
2397150.299202218
2100981.007712058
2357032.9403086305
2004969.3212689422
1867152.2903131486
2403026.7048032926
2039243.511188156
2078085.4150632434
1774751.8080486478
1767209.956925493
1943299.982795441
1563677.8915850031
1826581.3017529487
1595819.9706562648
1631280.0317770145
2075143.2100137863
2082769.6350663311
1767547.2724494643
2227734.7694754503
2343891.228017131
1569917.2372290127
2221077.7860024045
1441435.566941741
2030729.475386685
2070839.4983217635
1918187.9862318274
1688770.532633235
1651569.089628105
2071371.399997579
2107653.52502427
1366676.8653655858
2359720.0258316216
1777093.5496038278
2087014.3347387742
1900239.6325547062
1591595.505785807
1743753.981558953
2102811.1161825634
2108165.7957796706
1930201.8654013488
1460967.118239885
1540780.183060498
1633031.034536952
1606233.5488010175
1680937.5720868711
1608378.5265790916
1616090.8709471757
1507053.4741792385
1571045.5309335943
1403343.4594459294
1431903.7938126016
1552037.0379578725
1688436.4845936906
1731954.2846671094
1686110.200840858
1513620.1013810595
1810763.13337277
1559292.4804340294
1538914.5998874735
1395369.6347977913
1373469.7970462213
1362457.037350303
1388846.8006488925
1459912.5070145007
1203002.638941904
1615266.2187120365
2462279.313637187
1709155.9596043832
2168231.646419307
1593356.3380823599
1850878.8171839996
2508033.351855878
1434159.4003358807
2400800.3711384023
1472076.4406882015
2186002.9663925827
2469723.164638216
1351464.4347261046
1556820.429821442
1989887.87609889
1880697.0545847707
1636881.2531533365
1910236.5336434557
1583709.5469541382
1446788.9919468882
1356508.5064666402
2015366.182263909
1770553.3168363553
1618020.7320240263
2098003.7699340107
1586634.7773197638
1784375.3946637912
1800677.6554089533
2124891.219541627
1917583.6066240151
1681885.2069540045
1581093.916539239
1590979.563684755
1289332.012066978
1819311.3601363616
1521573.821835773
1430579.9455107807
1438707.0663588077
1557060.7361726623
1796984.2294882503
1322130.8383680673
1556913.1959285191
1494953.0127806666
1713757.18151892
1760543.791870864
1490486.7060497163
1542150.1843093107
1640833.308390333
1283316.1028841038
1679426.2917912863
1501727.1237240438
1580631.993431315
1313613.6872155706
1366612.4575579355
1392364.612589992
1496550.6163981159
1487600.4336657245
1288929.718561341
1306783.1434390012
1331491.7698711785
1629880.8145569188
1454908.3665178106
1740133.047201586
1258750.5586268057
1441643.4120667845
1591579.3467584124
1957041.0893194554
1385985.2797051813
1279990.725076319
1233081.1058365915
1250128.111465194
1901045.5948222
1304498.822714175
1192179.0160287335
1216043.7540242309
1344774.9609077177
1300726.9335524514
1323443.9744585366
1608707.9885597287
1782282.332251497
1273422.4510827311
1420369.8631469195
1233602.8331785637
1436153.165429672
1768890.6490782895
1479166.5809667755
1487813.6141259053
1312502.545682504
1455846.5817636983
1382039.443385941
1294495.8193035158
1256569.1257401803
1321972.7616134628
1283354.6013012526
1320959.7223193806
1197798.798074283
1157393.197322416
1370590.8185987172
1540728.7367105314
1015949.4495732139
1114184.570820834
1048490.9971656356
954003.7695616096
1237945.666814191
1188479.9449445738
1357287.6263625622
1412637.0138281274
1578861.932640459
1360854.454948584
1370069.089910002
1532858.605705836
1296668.2577144639
1293769.6735210207
1581741.38707706
1212482.65150103
1567885.2016318203
1423485.3781532855
1625970.158762008
1094865.4624092279
1067571.8763219847
1421970.2868102207
1026031.7006609607
1116808.3541500738
877550.7627333903
936296.2374415467
818563.8528662083
783796.4209156489
1729706.2691984982
2416744.1824977174
1484241.5585550712
2216538.2128935335
1514754.8110926223
1984549.6693043406
1382410.5525200337
1429712.6781109595
2505437.770422423
1774443.5722490514
2234361.3979655686
2562351.607643308
1741197.2457335661
2511809.0846209778
2577560.5718393507
1702259.7314445975
2575220.2005364117
1550278.4002667493
1839408.766624506
1405387.9136431685
1618213.2204389363
1252412.0763751043
1412486.1531354913
1233179.6916083242
1570159.2674809475
1928714.4083915793
1168727.748499444
1119989.3925401834
1012326.6511127946
1079485.3502285895
1012499.6005175458
1056397.568334468
959832.3491590942
1098749.4804605816
1136901.5681120472
1068309.9121689354
1271773.3590051148
1360450.5890771667
1330970.7459039555
1621694.1267917308
1349310.3787700809
1413603.5368418745
1183584.6221018105
1141466.7404399945
1155950.9643571863
1151823.3970328378
1155930.454270921
1285158.6147468411
1092200.2619756742
1124934.3182468286
1119408.492701345
1204068.4874338226
1238871.4118618846
842890.5701326684
1120157.1421266214
1133890.0091720198
1115205.3312745914
1105889.9963282268
1140731.5906501503
1085233.9275983386
1118951.8269245133
1094500.781674071
1065625.0269193037