<?xml version="1.0" encoding="UTF-8"?>
<VTKFile type="UnstructuredGrid" version="0.1" byte_order="LittleEndian">
<UnstructuredGrid>
<Piece NumberOfPoints="2299" NumberOfCells="11440">
<PointData>
<DataArray type="Float64" Name="&#x4f4d;&#x79fb;&#x5927;&#x5c0f;" Format="ascii">
0.018150214854159952
0.017749988968530354
0.015945835259910304
0.018119025618113255
0.015556565447604248
0.01813958319655139
0.017838294636921794
0.018129575235745172
0.015580860745940478
0.01566261371253167
0.017607743305571282
0.017666624725824503
0.01565852056272436
0.01542407929001804
0.017335611195650132
0.017602705641637222
0.01455941502256841
0.015665512539526222
0.014959216487743012
0.01705506029313642
0.01729948696953557
0.017064095812667518
0.014941577999952436
0.015258776579600836
0.015068770697491242
0.01668267379234527
0.014020775109822118
0.016530782889837902
0.013821963517831052
0.016867675296114465
0.0016915666478502474
0.002430668443396369
0
0
0
0.0018547257071180698
0
0.0015071986646948152
0.016525195555875467
0.014015327324331557
0.014748219513072093
0.014234327766992792
0.016337192472100387
0.016029708400076805
0.01617745021287573
0.013347301144572
0.014155533654304905
0.014215611359997
0.016022095545322232
0.001337271999494925
0.0025336552216954577
0
0
0
7.738883726260775E-4
0.0015978597218726453
0
0.0012825193294842168
0.013808699786502404
0.013473297291902884
0.012884611477483147
0.01571026625959873
0.015570780609581803
0.015853326111738196
0.01331507605822247
0.015565181592665026
0.012881285206699846
0.013166422015927099
0
0
0
0.0025210712761254833
0.0015883752547927548
0.0012973923743842325
0.0019754978399437054
0.0026082483169911496
0
0
0
0
0.0026027723160697703
0.001764433468691822
0
0.002720634264383771
0.001568618328901964
7.922967638669466E-4
0
6.532823433152842E-4
0
8.790761397394338E-4
0.0010577894166106838
0
7.970571653003572E-4
0
0.01531920564037545
0.013265788662958324
0.015215195832599806
0.01209606120542356
0.013641108675389273
0.015446262933961612
0.012474808223549896
0.01520484075853361
0.015038276090991818
0.014977215391671437
0.01265249336185404
0.0023851592814957837
0
0
0
0.0022074961636783827
0.0017795672681304513
0
0.0016754851785945569
0
8.391709573204728E-4
0.0012752843723176982
0
0.001448725074650287
0
0.0011694490902809844
0
0.0013033562833394306
0.001374658029684603
7.702285571843465E-4
9.198796603136081E-4
0
0
5.516685612392704E-4
0.0010919550211811045
6.937980778078128E-4
0
8.068727800610373E-4
0
4.337468296691481E-4
0.0011946661614808856
0.012862812480420946
0.015122154329042488
0.011869293614893642
0.014951586600951033
0.012148799874455355
0.014855703916606058
0.014908990366078075
0.012635259730017393
0.01483445255686899
0.011979819135017312
0.014811715800005175
0.014823005195781294
0.014822766674632023
0.01193617884859349
0
9.327180364678938E-4
0
7.945704561132407E-4
0
8.022029861425597E-4
7.085763660239703E-4
0
0
8.643575028815799E-4
5.192586606728358E-4
0
6.459010051470219E-4
5.469709932798526E-4
0
4.749793323956098E-4
0
8.716285804602317E-4
0
6.686393625222178E-4
0
5.818399573475771E-4
0
3.4505495170703026E-4
5.753705200538576E-4
0.011613385542880958
0.014820488652639267
0.012014820896240053
0.012939990148865826
0.011187840155538108
0.011205734305749481
0.011707665294441234
0.01325102131754016
0.01496019108896339
0.014905442465268343
0.011995191867041649
0.0148336272701465
0.011930944433762525
0.012191487185359375
0.014860675732016994
0.012335272269452165
0.015116067306816498
0
0
0.0010574828674379188
7.450950718883286E-4
0
9.537761008108123E-4
5.218487906999282E-4
0
4.512006312444457E-4
0
5.412144250290583E-4
0
0
3.801037253759531E-4
3.4014983780525967E-4
0
7.419118575136783E-4
0
5.520865506103804E-4
2.6044776038930585E-4
4.5298164840495693E-4
0
2.125749005106667E-4
0.015220564198437208
0.012152683970555678
0.015563158411689907
0.015449644702650535
0.012555219267081362
0.012710715554132444
0.012944827397333276
0.01504088478900689
0.012992101305355143
0.014970328305029628
0.01200467570284793
0.011771045688619107
0.015323038048843383
0.016015974782442013
0.015880257403241397
0.01311929398860252
0.013202752741466378
0.01572149564123881
0.012471098039145201
0.01556806411993803
0
0
7.965321376706482E-4
0
6.627392035540111E-4
4.0136834381679284E-4
0
4.4060760758202785E-4
2.988165224469289E-4
1.6147844857718077E-4
0
2.2089848459194217E-4
0
1.0405961260328569E-4
0
0
0
3.791077118079715E-4
3.790495487431196E-4
0
2.3433161247550028E-4
0.016520315569198005
0.016347910172710013
0.013693129562077301
0.013062645248640505
0.01367059104661334
0.012362853347462992
0.015204950579322673
0.01197404312364042
0.012172655895687598
0.012592264152925052
0.014627996581290267
0.01619239017309041
0.01301123385529936
0.01602675181466046
0.013149826688613067
0.016515871273600144
0.013712273100530442
0
8.057831008842533E-4
0
4.563730254782355E-4
0
3.402966567867391E-4
3.3809443072275254E-4
0
0
0
1.3477281386080063E-4
1.0698718859295286E-4
0
1.1510084930891553E-4
1.9515092911540693E-4
1.201460744349876E-4
0
3.4297555196690613E-4
2.7953591627407595E-4
0
1.7263199408377574E-4
1.2569156000496334E-4
0
0.017059410298542844
0.017593652225408995
0.014901795515244046
0.017394587554373585
0.015371541702062452
0.016882887983364514
0.017757981241445557
0.018145340235687757
0.015580759257995349
0.016693238312793648
0.014719207549712031
0.016124138341857778
0.018141281439548868
0.013445799846129865
0.013919068838711163
0.014757419445972954
0.017051840568819907
0.017224313014746525
0
2.4346951198472082E-4
0
3.1413337245932556E-4
0
2.4622174018184314E-4
0
0
0
2.196603389478147E-4
2.0099968530773885E-4
0
2.0920933422517366E-4
0
2.296677281175951E-4
9.184864650115217E-5
0
8.874734110018345E-5
1.1426455473372743E-4
0
9.465131681817196E-5
0
3.173387491879977E-4
4.588916491378625E-4
0
0.015897596149006373
0.017744964404529197
0.014143726237430434
0.015049985846268505
0.015766203474568037
0.017601006085029375
0.018137049117156526
0.015708268291130666
0.016017005102586242
0.018127805088016993
0.015576838375450071
0
1.573644681896884E-4
0
2.2053611944176674E-4
0
6.464374768697478E-5
1.4359297772233411E-4
0
1.3072310844986288E-4
2.0126536343245983E-4
0
0
9.731325236476241E-5
0
9.432599688935396E-5
0
1.5156628613225955E-4
0.0010044976593925961
0
0.0012995228576834458
0
0
0
5.643833298946124E-4
0
5.12297016742862E-4
5.006793009748705E-4
0
7.579089146375217E-4
5.246945169348428E-4
0
5.042156114356632E-4
3.496288136359988E-4
0
1.3107977255066118E-4
0
1.6564588702198014E-4
0
1.638078568907095E-4
1.6124992297949535E-4
0
1.7247228043471837E-4
6.792871566581855E-4
0
2.853910480621041E-4
0
3.2810014526390903E-4
1.4763829361788157E-4
2.0416713218078842E-4
0
1.7783885456442407E-4
2.8370218977556624E-4
0
0
0.0014996611272852605
0
0.002420423730524147
0
0.0012200920943042219
0.0016927794979922038
7.019507636260961E-4
0
0
7.611655009574214E-4
0
0
8.401524336823825E-4
0
0
1.9400222346383628E-4
0
2.3038729585051244E-4
0
3.042745690397636E-4
2.771843026651887E-4
7.642802994695283E-4
6.013782808698564E-4
0
0
3.1201083702992073E-4
0
7.302411103612543E-4
0
0
0.00253671845189351
8.404706816741751E-4
0
7.357176504172954E-4
0
0
6.078554729186039E-4
0
3.69245393297215E-4
0
3.826148390943999E-4
0
2.894945422923561E-4
3.9491148313888693E-4
0
4.499645726413597E-4
4.510548397603734E-4
4.7726683188295207E-4
0
4.0451113490769523E-4
6.085057917193333E-4
0
0
0.0019545366727186076
0.002754653746109989
0
8.699118424750731E-4
0
0
0.0010619835890480099
0.001229192378814061
0
0
4.2924933753559164E-4
0
4.56287391171538E-4
5.483466480212333E-4
0
5.808140047499076E-4
0
0.0010262057991893168
7.128438829558484E-4
0
0.0018775799045248989
0
0.0028845091282916967
0.0014272898036264943
8.179354961490996E-4
0
0
0
7.742303326635628E-4
0
6.27919771783173E-4
6.995949877569088E-4
0
6.415407338847024E-4
0
0.0011746996144906265
0.001482971077809297
0.0010282855894559228
0.0011646295422543564
0
0.0019226664603411948
0
0.0019459114972756244
0.001331689885517945
0
0
8.454963589579041E-4
0
0.0011625188932790147
0
8.229430016588149E-4
0
0.0010537004204025267
0.002887910411581661
0
0.0026612333121554467
0
0
0.0012252452556267897
0
0.0010701494977897695
0
0.0024286474943997307
0
0
0.001615209868494851
0.0014879024603664738
0
0.0023443344674583598
0
0.014838630812655731
0.012897086740335016
0.013301574490353985
0.012317812284403125
0.013864405821852778
0.012932938740523203
0.0030521268566777128
0.014838221457218507
0.013874165646701188
0.01357545542075486
0.010462484128524617
0.009049495911358243
0.009668619613962742
0.00911620203905242
0.012361369686837929
0.011780238128320767
0.011279334239215028
0.010831988940143613
0.011184718451357451
0.01075438279874598
0.012082299605985107
0.009698829458555824
0.010266961966910333
0.010775163367899023
0.009978034900609445
0.010424879092799964
0.00999152761857888
0.008432206604171169
0.008089428186483958
0.007899110446267269
0.008925440688197105
0.0077788147929286474
0.008911541776121691
0.009440210016076984
0.013793289649758006
0.011565422364387061
0.012858256256250986
0.013439805024302478
0.011047136967801128
0.012055648875142573
0.012198379691833381
0.01010300109631901
0.010950090411438244
0.00921442203135656
0.007371126023258959
0.005930822901611761
0.006319619483127619
0.0067574555473410005
0.005809254266437811
0.006170139204206591
0.006881261952497958
0.006661711386862108
0.00585911823545921
0.005594635323778157
0.004704703679273407
0.0045465088047916885
0.005142984597001104
0.004611291751864159
0.0048969355299440746
0.0040194242442086765
0.0038576202325021113
0.004018864499099279
0.0029203850216195097
0.003717454637803408
0.003841701709807211
0.002717423276590058
0.0032011341231140108
0.0028648749344569267
0.007805325349273264
0.007222335858065895
0.006543167531235861
0.006511974172785983
0.0064327372402638765
0.00998729783438962
0.009637498114219002
0.010462426782863922
0.009051834568132402
0.011541125807911605
0.012303142815617464
0.010965828580854813
0.01188097316235154
0.012932348209403791
0.012863716145150831
0.008377717548582903
0.0070528834336039984
0.007673773697334213
0.011030024540522938
0.01075270186462245
0.011056479748433622
0.01001604461257785
0.009238346626204931
0.009741283573864983
0.009648066527482131
0.008051349481037612
0.008732057845701916
0.008633963406324751
0.009424092241471997
0.009823221360875748
0.007852379875616149
0.008068893548783823
0.008054448807194444
0.00768752211177287
0.00837316741101896
0.007230718992178289
0.007030923766818308
0.007437554180931772
0.007593298172893817
0.008021292594201875
0.012237456720607333
0.012733838529647103
0.01123958219666951
0.011394195083733006
0.01111229271683145
0.012480608015148551
0.010559112061438693
0.009285503724963347
0.007655767904340601
0.007076704485545649
0.008980087391642662
0.010236236257203483
0.009615829916979911
0.010936455413086793
0.002512559723758225
0.007152646729383833
0.006166661139651661
0.006179144115320555
0.006441658074177628
0.006445660936932173
0.006334238686597879
0.005866764047611882
0.004980205882348056
0.005424660020269063
0.004068062146107942
0.005231293719258678
0.004049214044932157
0.005176955263720529
0.0053227734107455914
0.004001393068679176
0.005027204616830777
0.004895928354607522
0.00343843380515011
0.004201682238406511
0.005425043862926529
0.003222523188475456
0.002684635559188866
0.004461318529012811
0.005319415761189928
0.004317577041576639
0.002056755613588111
0.0018252001898078484
0.004052037447898341
0.0029314255321868637
0.003056364122583205
0.002339217863160451
0.002562478581896268
0.0025091897430626195
0.0028119117560976297
0.00632826971532714
0.005844267010049419
0.006329677193174259
0.0063046816480299426
0.0038509852832459457
0.005000890250227632
0.003913906685398762
0.00277483023740307
0.002873029423024526
0.006513446642571224
0.006682811837172116
0.0059850346284635566
0.004799299803531291
0.005820102920664677
0.005121611430362186
0.005639626817236652
0.005959242770478701
0.006525631604253677
0.0073187426317430325
0.007047100344173143
0.007323516830827821
0.006539556942764245
0.007899780694433842
0.005565072416680667
0.006320362445981247
0.005714562000713477
0.004666956180782827
0.0044167342812391755
0.005283940056497682
0.0036842203262554937
0.00673347395997491
0.006879234756713417
0.005942027920744427
0.005110998833843292
0.006234578569400066
0.008158134759783322
0.008637328567497373
0.009111737081414216
0.007324143188772799
0.007778042595714047
0.013353667965350006
0.011075431789252875
0.010135074396635326
0.010930344031228029
0.01139953092136343
0.007898175305745485
0.007134498689232798
0.008363356704882394
0.010025440606756234
0.009290880997512409
0.009176438707031798
0.00911437199217153
0.008545244061424153
0.007681433414807312
0.007011821374660915
0.007794782032798617
0.008472642102485663
0.007460556117504725
0.008316042986764464
0.006900499555067792
0.007155244328565486
0.00642300411889102
0.007632503377205817
0.0064632415213481285
0.008288138491861156
0.012315982372200348
0.011766456374627289
0.009536998991598352
0.011063430199863085
0.012390066443012611
0.010172874730795088
0.008661276367699365
0.006336721496244564
0.0055823269896588664
0.006135293074935111
0.007797490679503458
0.008044063490908056
0.008987758025539807
0.007143712989747571
0.009343889435973753
0.01049772893954559
0.01049705856959348
0.012485465707718411
0.011953804137496719
0.007452220488355383
0.006681698900327549
0.006512293751818246
0.0019894422528534124
0.00486550254603094
0.005913043753815398
0.005351449088532107
0.005357421918001846
0.005173203816541056
0.004763338332628126
0.004768166514299298
0.005444516406453426
0.0014290394259306024
0.004346429251216524
0.003761842019471506
0.004171775276967603
0.002905616038134084
0.0035898303075519683
0.0033372483218731394
0.0040363162526756554
0.0030449818483602297
0.0033320859572812393
0.004321922326041361
0.002572602657601751
0.0031775271161168803
0.004106782707449033
0.0044098021044897216
0.0029803972876118693
0.00407667392987094
0.0017035044935075638
0.0026909633481663133
0.0028857945196818233
0.0019551337652201554
0.0056642270316752666
0.005230048830561314
0.005808215965425939
0.005072433024049792
0.0040246002965286295
0.004036693871421277
0.004689657303712214
0.0032289830097750514
0.0034390791853438946
0.002393410225880169
0.001949452803985917
0.0030853523650226345
0.003310332255246998
0.002637785195612632
0.004198577755087377
0.005402560829232529
0.005509402940670243
0.004980751712294684
0.005857820847570816
0.005365580991237239
0.00589104007832737
0.00587036874369476
0.006215641854620809
0.0066624963856895
0.005002841372560684
0.003925203881162465
0.003807022437651751
0.005594409052078487
0.004546370373894429
0.00528170745335635
0.003828865724154302
0.004969631811530628
0.007147535164493239
0.0047472166708315885
0.006210638006200962
0.004928295907655698
0.0076734093300861875
0.005536598005548631
0.0064326906740185515
0.010938742338517925
0.009541467115627091
0.009266405968350487
0.009605410929918116
0.007432798062978078
0.006492338193689713
0.0070253459189314775
0.007564815999077794
0.008960781764368451
0.008260235562279995
0.007677885349470297
0.00763525636528958
0.007546130410558581
0.007634926087663416
0.00740428824668224
0.006840068303347269
0.006744805314095537
0.006609357430805987
0.007234006312812094
0.00675432313734901
0.005953100829214828
0.005674617467551203
0.005453861716155598
0.005981128607585875
0.005295912534709503
0.006337232751006182
0.00848640771166845
0.007041108687250499
0.010115114320949555
0.011780813559411967
0.011247905832804444
0.01010103284981276
0.009550478349035415
0.010701642328728219
0.009006698688547577
0.009431684596837879
0.010422497384248653
0.00831808907093823
0.00825290877382612
0.005694111698602126
0.005578154531037312
0.0056095211869487665
0.008535881457310794
0.00805932448214248
0.007701853427297949
0.008825037962581392
0.012147834845633679
0.008226519689864318
0.010407424047662445
0.008992665180234916
0.011052238572103183
0.011251101291617056
0.006715800247377113
0.006910267734342877
0.009444119914663086
0.009788642610608867
0.006736027505625428
0.005848956823939346
0.004934527404946668
0.005128276517780707
0.005133321446816871
0.0013867694674647704
0.0021296347623610333
0.004239668973202341
0.004379326038307413
0.0047023439683658705
0.00471396393772247
0.0038681887522978675
0.004027170704983387
0.004616577944546534
0.004120035536955501
0.0039566649056815935
0.004650626086662608
0.004507943854957177
0.0022003698438442082
0.003192127290893345
0.0030951135039008217
0.0010232573865822554
0.002130303694872618
0.0016817338519637124
0.0039573781514464735
0.003209516770229449
0.0032142678681188258
0.002795703690404016
0.0027764756612115803
0.002373642218977228
0.0026576985859417114
0.0031314008693708872
0.002766226828226377
0.0030592063347640694
0.0021553797716320545
0.0033236996163859786
0.0025689750950266764
0.002950325983594449
0.003153674912313358
0.001375790417038706
0.0019529848804070173
0.0019046168466715827
0.0016630773690557356
0.001592624343143473
0.0012010179888418922
0.0049396046570897275
0.005597587695449339
0.004546677444025098
0.003126580047434434
0.004055764318565246
0.0030220656136489814
0.002080214884658815
0.0024986269307741894
0.0016384461958445509
0.002987977547636583
0.002352445612312135
0.00325488500833584
0.004448424940435875
0.005111586088796249
0.005314640008814119
0.0038044044086481136
0.0032257550802334283
0.004316131205451767
0.003779907589536376
0.0034571667985519717
0.004611552061249496
0.003825508658922922
0.005482458484995434
0.004396038090932087
0.004873241229381329
0.003815532758385171
0.00435401060354871
0.00621676261577067
0.005096780114841276
0.0057409869952137075
0.008380346183910732
0.00897665202627129
0.007757242344213658
0.006113928321767491
0.006564017484359686
0.0070451786272910134
0.005910446122625232
0.00723844677985072
0.006903747195825295
0.006214521924157695
0.006117974686294844
0.005831299810501921
0.0048193932163879925
0.005083124030818512
0.005550960964818113
0.005271574411484893
0.005156128990198236
0.007511503665730976
0.010941606670397362
0.010311514451836694
0.009385150233708058
0.008220192543962805
0.009049945528684685
0.008777825201038118
0.01002734124018831
0.008453079847393725
0.008457317277416675
0.007337237055237035
0.0074945652093185424
0.006194418481914461
0.005528661471391222
0.0047084124980463675
0.005265614811798372
0.005710020698386905
0.0074417116357441745
0.006640442815073373
0.011999585855366165
0.010790513590536902
0.008179471964765424
0.007883883601825643
0.00982408117595651
0.009665974408563132
0.009570336927485464
0.006143601229337433
0.006266108904613849
0.0053483420800469325
0.006469077536247097
0.009094828178924645
0.0078091249802005455
0.0053193601888838725
0.004812093854059211
0.0042119393911582885
0.004074952767494556
0.0035801401425013526
0.003833978216146631
0.003198382827193565
0.004111410286853397
0.0039790143269339455
0.001557387803522448
0.0010218956356994357
0.0034479064291133414
0.003402613384931974
0.0030549972324708814
0.00277359603361073
0.0020455726241155954
0.003713482106890085
0.0033306906061502796
0.0028535118994059768
0.0037530032687709044
0.0034538186928551222
0.0016118836817830113
0.0015012983343960157
0.001064264476231879
8.346288967644163E-4
0.0015644096605519884
0.0022991146050864077
0.0022504724842662836
0.0015901830658036741
0.0029355030280919527
0.002915383281572308
0.0026186262352309742
0.0021476186989434136
0.0015920865905316437
0.0011190832196778728
0.001772976571481018
0.0023714136279570992
0.0025109681707956655
0.002128046383749615
0.0011531889870503781
0.001302494759195891
0.0010797175112639951
0.0010557272470645732
0.0014077025762207819
0.0015141610979026712
0.001054157986647839
0.001185592288251615
0.0042335836072088405
0.0037003986135284678
0.002787850431333616
0.002300787600591673
0.0020629254181719647
0.002683625991024133
0.0025296201215949023
0.0016481235487419796
0.001498415479508645
0.0020522731233222733
0.0017750081554661972
0.0025893079754492824
0.002176813139781128
0.0031634362764967946
0.003777183392519577
0.0040551605531117755
0.002978799695130927
0.0027661867605102957
0.0033772521092834402
0.003259687344024946
0.002362324299355866
0.0018923926272465799
0.0034962743310771732
0.004450795565543246
0.004133083221652152
0.0034083876644066557
0.0026666516558767287
0.0018516100947987212
0.0024784826309513413
0.00413626902554727
0.005009343764410593
0.004590801948298058
0.0038115795157627488
0.004972677205373999
0.007210526369716604
0.006482032031953749
0.0062426091884336425
0.004867544831546123
0.0059288754321155076
0.0061488243889485815
0.00550174861047116
0.00500560311780861
0.005316092469990328
0.004513789354311982
0.004388676550157843
0.004077521998374216
0.006332501307299589
0.009406041767649672
0.007825795202654001
0.006458209147743795
0.009750075437685026
0.007461428608196864
0.00826120031966557
0.008090860318491615
0.0068917791721785325
0.005976533488713256
0.005678490819581214
0.0061115672615542635
0.006098067571287213
0.005221036032823156
0.00352395165912192
0.004443348771577049
0.00408759294196616
0.0032208320151515925
0.003660985649304643
0.005191232312164832
0.0047845329342385045
0.007196611727499551
0.010211700544498577
0.009627807116254494
0.00683443603054648
0.006325943538625066
0.0086910100165509
0.00906171812608336
0.007866393455914882
0.005186735675481463
0.00576106224479447
0.007448786096973578
0.00782342028460951
0.007088537251265051
0.0063993071029969225
0.00812608908375129
0.0035726855894898323
0.004252991351493083
0.004604048193214814
0.0036275368649857868
0.0036688847133077795
0.0034714754920055772
0.0031294527578508632
0.0026399230066483786
0.0033935446434384263
0.0030222115029139656
0.0031589118648066173
0.0030750772543437937
0.001399956107575137
9.472981764613062E-4
0.0023937282877802
0.001897020974864993
0.0010954035775015375
0.0019736427530428493
0.0025701183355204865
0.0025959780475982176
5.913885406701614E-4
0.001080552777418548
8.251840662750238E-4
0.0011752574899159339
5.366472192622531E-4
8.047323856533672E-4
0.0018503555489883133
0.002030442470136331
0.0015117333682833536
0.0020410005864831553
0.0015527438254324887
0.00117249081287675
0.001027858908781855
0.0016499397348859674
0.0011048132157307356
6.837662454648176E-4
0.0010404831987997217
4.5427519248537196E-4
0.0010738854874023766
8.634324348823595E-4
0.0014140682368993197
0.0029138470744206908
0.0030965492219827383
0.0020487392086583783
0.0017960085603852046
0.0013215104311596235
0.0021664241966795413
0.001376022734986263
0.0017083166233257837
0.0015448862234817607
0.0024587730979580345
0.0029471743440462775
0.002129006019876203
0.0022846532136778248
0.0027663986378807306
7.111754285552771E-4
8.553748641686158E-4
0.001289763781460708
9.008353155348738E-4
0.0016058169208355859
9.889616419784344E-4
0.006378482561080939
0.002703333646264891
0.0017812367120467949
0.0015772750413283576
0.003084907637145858
0.0021192260602863494
0.003405601472818793
0.005879387135417611
0.004313355899678371
0.00512763683953056
0.0023305601627200733
0.0032419501326923002
0.0018589908003268534
0.0015466473261135137
0.0026823079043127186
0.0038027599155208416
0.0046761729190476255
0.004402130106646599
0.0031820269344014413
0.003070819358180063
0.0038425928995635414
0.005630201972776348
0.0038477657000699074
0.004360442132379904
0.004778076961088245
0.004218731153437959
0.0041538021455314175
0.00366009124102986
0.0034815154262167734
0.004632427388502765
0.0037873894823971846
0.005283201524253599
0.006091135675056896
0.009229130074059066
0.00966848703937019
0.006621950027527335
0.007527916862591897
0.007870378250482752
0.006575026359128891
0.005799681613220817
0.004936346237951943
0.004643428277583282
0.005425834927775178
0.004807013606759264
0.004804986216900311
0.003901299988622862
0.0032301235300473403
0.0035673706238506446
0.002869402430106124
0.0031891251303508158
0.0042741077119110025
0.004952678205690898
0.0038195805692128786
0.004087873542711708
0.006762939272889112
0.005808508295818541
0.010066202090660817
0.01064228663045843
0.008867766109679213
0.006036720814694267
0.005204255541993315
0.008077286169423601
0.009775500681952027
0.006638461084331161
0.009154221074619252
0.007987720628277394
0.010289477210091323
0.00999889608495025
0.009211070774869904
0.0076643529448472214
0.00845106832609129
0.005583640137401146
0.007087193406672528
0.006909581601130654
0.0074561772981263565
0.008382144568784342
0.011176322820879915
0.01057643960245949
0.00968686770196764
0.011175810836329453
0.0028266081303191097
0.0031199042805346174
0.0032927775908278833
0.002626516871093272
0.002797406134163023
0.002250931219873542
0.002200679517615545
0.0016862096437794195
0.002396079870871592
0.0021614953728349685
0.0012110816117812495
8.871039934920665E-4
0.0016939188891247788
0.0019161774832036343
7.653348215953194E-4
0.0014726820241501941
0.001094876961327562
0.0019781472018931077
0.002058620946958814
4.975774395287384E-4
8.209522147178511E-4
4.932396431969772E-4
0.0014344545621134636
7.33395716315114E-4
0.0011011982387702697
8.181806346083675E-4
6.170137577265171E-4
5.557237922434315E-4
9.27601763478381E-4
6.395676046102463E-4
4.678955691470764E-4
4.662220777438989E-4
2.4251208506218506E-4
4.062604260500203E-4
2.1174946463032096E-4
3.8980988865932724E-4
0.001216692351485266
0.0017530942368919862
0.002476414786437958
0.0020525014420130208
0.0021903132120500244
0.002462183301993729
0.0016224505490660584
0.0010672687075472032
9.54512021306711E-4
0.001369702602019272
0.00128704947198786
0.001939032706226764
0.001932192061141878
0.0022481536306738015
7.75153651391867E-4
9.182934225746366E-4
9.432073896830724E-4
0.0010389709858582507
6.420836234500062E-4
0.001349101039193373
0.0012846158089202216
7.076905874848529E-4
0.001408430402064236
0.005433547147210961
0.0020956433065872355
0.0024443059532912943
0.0025678908667878943
0.002273220022771839
0.00430021663744566
0.0033040114024531354
0.0023758001026018
0.0018285755742029725
0.0039733927103879265
0.004139622103804056
0.003286870753071494
0.0021688164294842984
0.0019322007031978051
0.003134744786646544
0.004053648888280425
0.0038635557360628407
0.0042604327811259345
0.00283913836994637
0.0026858799730193937
0.0029112758149526666
0.004477847658371735
0.0042147300648398495
0.0034596327326168997
0.003738997428139875
0.00271157331873862
0.0029745042058332894
0.00346256486403818
0.003863998560436163
0.002906737861341838
0.003930784574035562
0.004791646639802141
0.005956155148316032
0.0034413469455512736
0.007889428925235458
0.006907441232323087
0.005582843376750458
0.006465730600770104
0.0053761235582239
0.0039351319241704005
0.0048252737047503064
0.004712148110268864
0.0054962888816522636
0.005968454884987997
0.003355902915025247
0.0025707664171927564
0.0027842552293492755
0.0035211744235162535
0.004405788016137043
0.004907835535832863
0.008312026980764829
0.00666126895900741
0.008854748450539544
0.005120050624324277
0.005585482712097729
0.004801827333633769
0.004821405370997065
0.004742488081305866
0.0076666604421738995
0.006440440183586332
0.006807246782054925
0.0053416308705716
0.006860671662725501
0.008432059106193728
0.009106246193558716
0.010729468176067023
0.011346452647927552
0.007797883426091287
0.010816406828559446
0.008506154061791012
0.009717009821144372
0.007039684674984085
0.0059686179872426685
0.007136377156640447
0.00755196723557793
0.008891347570047422
0.009247156015114359
0.009773741483867265
0.009750689431465702
0.007967389903900585
0.009647752605956787
0.010771998788942886
0.014271712820871946
0.011333119421766845
0.011865227606947219
0.002169830032419921
0.0017116145935936234
0.0018766014431861198
0.0010289402789456883
0.0014007897690818906
0.0013842662274003532
0.0015885563409841692
0.0016645539202792487
0.0015999017560961138
7.225664234149674E-4
0.0012653098306237636
5.32128376172697E-4
0.0010114361339888871
0.001292447741105659
5.756791238971528E-4
0.0032941106371640466
0.003363935404876332
0.002265438210083921
9.396198516915809E-4
5.278187141469769E-4
7.353211082452328E-4
9.855269070635083E-4
6.269681685904109E-4
6.09821689320958E-4
5.987788858998372E-4
3.2625255718457633E-4
6.814181101157736E-4
3.5177445363323754E-4
2.593451531100749E-4
3.543750147314197E-4
2.816773631761517E-4
3.788757821162058E-4
0.0014475140306339028
0.0014354328809598848
0.0013665264982002194
0.0020274054207004033
0.0025628323861157094
0.0019575720221440855
0.0023479638682140517
0.0018505424378990516
0.001610763932980989
0.0022591520027049066
0.0010926890400280954
6.429507966128972E-4
0.00104557481964582
0.0014070355781189423
0.0018760989196949093
0.0015886283762494185
5.248508896677271E-4
5.402080022834417E-4
0.001234683129966437
9.996486204714567E-4
9.95514361388557E-4
0.0013840008895559216
0.0011865557647480316
8.573014276816584E-4
3.7460828918499584E-4
0.0010126507011791568
5.53905743041591E-4
6.525022670997876E-4
0.0018624363694024254
0.0015393920552048896
0.0011584601445075579
0.001356715548361546
0.0018236761106880824
0.0027483716824835834
0.0019762680973676385
0.005580061173536322
0.009745594597749235
0.009352205830129552
0.007977516045286978
0.009998994792559003
0.014848114996358408
0.004744754173514985
0.0020628226060907186
0.002634186162506428
0.0026188755680850435
0.0020583301341616017
0.0038052072081903726
0.002948332975601681
0.0022870426906633147
0.0027502106531221964
0.0017364399477175013
0.0036351855647535768
0.0037673563039786477
0.002901698233237777
0.0021169831028372064
0.0024429830027249103
0.003986324884902111
0.003182491536194294
0.0029176857191871718
0.002509733836577676
0.0031533135631380913
0.0030042679565662495
0.0057795484294181475
0.006114833588565225
0.006545105565118681
0.002692693839708125
0.0034369856508636863
0.004258816896574754
0.004249664178768305
0.004721643572525543
0.005259380053400594
0.002460465929812084
0.00429944758144589
0.0057867664313597765
0.006372322318923904
0.004976382712072571
0.005159924158674485
0.003680587841926096
0.0042050003903227745
0.004278029506073861
0.005865642655379976
0.003526489714207327
0.0033124383649771653
0.0044093228664766485
0.004227174982634145
0.003973442208178238
0.005745893013558573
0.00462197491903447