<?xml version="1.0" encoding="UTF-8"?>
<VTKFile type="UnstructuredGrid" version="0.1" byte_order="LittleEndian">
<UnstructuredGrid>
<Piece NumberOfPoints="12926" NumberOfCells="66445">
<PointData>
<DataArray type="Float64" Name="&#x4f4d;&#x79fb;&#x5927;&#x5c0f;" Format="ascii">
0.01985021999519855
0.019746819869138368
0.01945135136855696
0.019859930174479252
0.019755449321018775
0.019536374797217388
0.019894983641231705
0.019431984265579835
0.019888792989434682
0.019619487257765442
0.019460356537398252
0.019719536734155156
0.02017121796783655
0.019827649557457194
0.020073288014458644
0.020313719568594468
0.020263163681435485
0.020393972236777854
0.020884424847855635
0.02100998196138801
0.019980442785778714
0.020549782338408082
0.019973356724959323
0.020814566132263505
0.020295144215633092
0.020026733474545023
0.019336920435836475
0.01953570683722333
0.01977163751084449
0.019446269717543506
0.01905503150084657
0.01959951482742712
0.019136582589335153
0.019659339241372618
0.019253475819207836
0.01894879960107714
0.01935257134737821
0.019264736891578982
0.019453194815906686
0.0188831809406318
0.01859843875232324
0.019047592725618595
0.019041456575630954
0.020005788888848377
0.019427975447371824
0.01989959453594609
0.02030521815964518
0.01925581715596892
0.019834344052653576
0.019612047011356885
0.020044328058033075
0.019544469753853388
0.01879073298117245
0.019325046870576488
0.01860906546074957
0.01881095512570779
0.019099916810952494
0.018856532855528574
0.018354332035010294
0.0185654392612456
0.018782555232759807
0.01928577305150064
0.018897636993741307
0.01932803649354965
0.020618236233006782
0.021347666715725497
0.021236710440766134
0.021804359137238622
0.0220488420105422
0.02116532652153835
0.02151642640338058
0.021789838591173408
0.022080914683966498
0.022462333006906306
0.02282705334365132
0.022723706788709292
0.01952993847014911
0.020033812302491478
0.02095522009776251
0.020653721494970797
0.02041254733884458
0.020359198720802742
0.021035206217598947
0.02135001697726732
0.020191792960832882
0.02070038838329708
0.021348165795326505
0.021574412883941955
0.020905470631571107
0.022104129710902195
0.02118125326743097
0.021656844367904108
0.020545196513743817
0.02081325461401752
0.020187333352456534
0.018462984869711575
0.018628371050756383
0.019044389308518647
0.019382744090192323
0.018938965208137645
0.019256233977647273
0.019553056941023796
0.01895360157855657
0.018687423234317376
0.018554743315328633
0.018808231218807304
0.019074671546356402
0.018928474917371693
0.019815232338393832
0.018066493132976816
0.01850161796469107
0.018312903308164142
0.018389197386907506
0.018046364722056327
0.017796602235363813
0.018161867085760466
0.017793609989024163
0.018860274052882965
0.018920073240851657
0.018326143773507105
0.01804538979380863
0.01858903890248939
0.020057194395704712
0.01915556622478581
0.019769352428528255
0.01981514957520114
0.019529191447687836
0.019504215466165726
0.018395886796945374
0.01902785483085075
0.01921167781031846
0.018746498867302976
0.01804680078433909
0.017581844615458177
0.017771595949275687
0.01741410381045525
0.017762889169697035
0.017129004209899875
0.017491892910344448
0.032761659714775994
0.033282026389931066
0.032762269766874824
0.032674637107199526
0.03336984209548011
0.03305433428621981
0.03215103466125478
0.03240964284127192
0.032445573048235456
0.030234730949544826
0.030184281097261137
0.03084131669604741
0.030613280482338984
0.02914350941806155
0.02963405512777682
0.029040579677887854
0.0294103772748658
0.02912424125621551
0.030320596395362203
0.02971893593218222
0.030672364055946675
0.03145160105011009
0.031222388049827937
0.030927823820216357
0.030987582983856177
0.03153883921787303
0.031166768482781958
0.03183401367458238
0.032063625276613106
0.03190398520445558
0.03156488798045491
0.0315929989557424
0.03041923064806179
0.029995681910950197
0.030008661138375494
0.02202661092796798
0.023716471572504484
0.022956603888176677
0.022167186326444214
0.02294595428432768
0.022544650103619116
0.022857306570793986
0.023623615491351745
0.023830054844624807
0.024036849549898733
0.024670640677838397
0.023720215460254945
0.021382681248982512
0.022153954324745262
0.021199030586577478
0.021787634517220884
0.02208500995029998
0.024505221049487085
0.02306137082151471
0.023519468066527823
0.022767737367781492
0.022633041068307123
0.03397093455143985
0.03442857896628165
0.033883628544956905
0.03368348900505281
0.033371495951646575
0.03365827595868096
0.03425540869848331
0.034081758556993934
0.03484797251331637
0.03365885198176028
0.03456433606404036
0.034290763017150165
0.03477330670462889
0.03437147048755675
0.022084933792979097
0.022226318594946063
0.02141651636582845
0.020919723755725025
0.021060882768708784
0.021055042795728732
0.021830937741600158
0.021534518556912144
0.01975259219682413
0.01958289041037015
0.020373713140495985
0.02003660226958119
0.021181362064382262
0.02044437824702637
0.02069294158234229
0.021439800020716795
0.01784583543089255
0.017332340182027988
0.017737655650104506
0.01811530095183635
0.017559032949423268
0.018575601322802508
0.018180137654007826
0.017931969994444356
0.018336251442871595
0.019396681429914176
0.01912762508435656
0.018268605222477082
0.018363687522512287
0.01875777596336319
0.018117243649923447
0.01876692456206086
0.019808085960510705
0.018615902639273988
0.019337954880246307
0.018878036998763618
0.019799797284887694
0.017301012953558407
0.017525937969136277
0.016925900621323972
0.017290633897939413
0.017456330923123722
0.017545084738384516
0.018456839452662136
0.018164010709227407
0.01786843946459869
0.01801752874397371
0.01860956119610763
0.018400014038031147
0.018914976229913366
0.020060388992058822
0.020033443592588265
0.0186725451654942
0.019247303510582184
0.019433518323384434
0.01881669393297192
0.019556496920267064
0.01829903452410008
0.017630289058250034
0.016997087760299883
0.016426173878901665
0.01639487485407914
0.016730442398427085
0.016921656176337174
0.016964796413443006
0.017477311921449665
0.017211468221808877
0.017187846879510558
0.016603554413983927
0.016888659556716347
0.01725646460556199
0.01614322411823314
0.016431862426221768
0.016166417522264123
0.016631153544895142
0.01632251297673343
0.016589503202265325
0.01708590640581719
0.017561621002538323
0.0172411530290326
0.01766789373899958
0.01797493855703913
0.01695401096409927
0.01700472663773544
0.01734965517308732
0.016065628936203703
0.016339544390155666
0.01700751694722347
0.016610303099882297
0.017367587299526217
0.018144866666219724
0.017904396796189766
0.018467293117081115
0.0162869464732018
0.015970097797082642
0.016639365545077046
0.01763915211243589
0.017816686247138346
0.01834216640933927
0.017316251272714314
0.017493073933356508
0.01702909936859192
0.017999107623006872
0.01693314082166842
0.019241227296218202
0.019692637942928862
0.01911511325952733
0.01935461003724822
0.01879267310187516
0.01829945696288661
0.027981453330418737
0.028455792587517032
0.027961503136012696
0.02788065863015999
0.02855748584460055
0.02853812389226588
0.028238604182586547
0.028820058768280536
0.02741505934819743
0.027395396964985236
0.027316084132265578
0.026840063889613634
0.027667390765527104
0.0328924667015239
0.02861670020733757
0.02880938916273423
0.029602252667094046
0.029209185449929398
0.02301533991064587
0.021941683588434627
0.019897222654898697
0.019619266382256726
0.020299344400129787
0.01997297160576799
0.019909897161448326
0.020333668490427174
0.01928478868165022
0.018675235400739447
0.018475726632285625
0.0190136660316339
0.018390411671136184
0.018333903594846733
0.019260275046571317
0.021056625667001002
0.0209770427897999
0.02062863210470646
0.020675622715503723
0.020080269387664232
0.01753631357615105
0.0177774385562448
0.018059579225438018
0.0171822405101761
0.01735236365454196
0.017232329868033115
0.01748293761846397
0.018283502430380398
0.01747156841850878
0.017810329166348005
0.018690276893092654
0.01763797274010777
0.017766463087951507
0.01902099371107445
0.01827494746601866
0.016676439738101144
0.01636748565954546
0.016636721162803087
0.01694173712756195
0.016050164738664822
0.01567685245740968
0.015767739398349676
0.016157840040831324
0.015555220522304769
0.015951333730776417
0.016126332997572216
0.015879590193179968
0.015483347734317164
0.01567057703398184
0.016340270276742695
0.01599224888088776
0.015511284760287628
0.016032545722073657
0.015688732094203496
0.01595424239934606
0.015437315892522577
0.015245403470236566
0.01533883915546974
0.015603413391511336
0.015752897976079375
0.015382304507365658
0.0021549286825577095
0.004188158798367455
0
0
0.004742842008537093
0
0.0018902405463524575
0
0.003342758061331427
0
0.0038017684374777112
0
0.015170194295364868
0.015470229007930467
0.014859398566232099
0.015306330960071583
0.015397468939819282
0.014633894801451216
0.015026904432169755
0.014883739474982956
0.014343701835632276
0.014601276026487649
0.014806432311856993
0.015101861291675343
0.015048780444544437
0.015725061474157895
0.017280538843411866
0.017815994804550202
0.01796205572964649
0.018791466681100325
0.01865315465888961
0.017921726106510726
0.016176769403522535
0.01650724416693001
0.01646520970940235
0.016714721487154995
0.016384577056646202
0.016548271061154547
0.018536247179193086
0.018906062888130577
0.018552823274672624
0.020682728889962684
0.019923479509775136
0.019150546813804657
0.019551503312942472
0.019185933990029373
0.019472184253635158
0.018773410094078565
0.018822017184624836
0.01820671803886345
0.018182964651572653
0.015772790833291615
0.015104164450372362
0.01609127001705946
0.015422114414772007
0.01587906290393247
0.01639408520938526
0.01614608606125962
0.016843406187504576
0.015680883519006966
0.015663407135782195
0.01650952378746528
0.016122723296525147
0.01619611159103831
0.01716127036020945
0.01765501312210604
0.017417332616856893
0.017653096594731015
0.018093886794164845
0.01785649454446523
0.01794868663056182
0.016734488076872615
0.017326110808081583
0.017400968681641756
0.017512048272074924
0.01687842539372294
0.016996624147663113
0.016243144251006526
0.016652891604442017
0.019640379086702017
0.019504983020778858
0.018674627390100854
0.027658627656773575
0.028050738539519112
0.02658090572951872
0.026762646296045016
0.027106932973657214
0.02629671050166668
0.026909909479420683
0.026546182510981765
0.02655792832086366
0.026221061284853592
0.02569147884424263
0.025174266632263735
0.025265198918228985
0.025496106411026228
0.025245605884112506
0.025765088691655173
0.02602111450520656
0.025480768431757804
0.025763154568307325
0.025828889713362245
0.019001890867787922
0.019385820864401316
0.021728567961051205
0.02175619457834812
0.022178203638070333
0.021910248380942157
0.017051365885092748
0.017088616924361588
0.016612345167425487
0.017417768530280493
0.016969393722754415
0.017774365063173782
0.016817499666615724
0.01818120474462639
0.017369022422981325
0.014433981074632767
0.014739273043763566
0.014472621578894998
0.015857251948863636
0.015590460799347079
0.016578766676891347
0.016073056767336138
0.01501926175644507
0.014712016073942014
0.015305670121307539
0.0025511404281377405
0
0.0020119173161694806
0.01563791424784701
0.01546927812646051
0.015259235931012392
0.015876581557585256
0.015143939872421302
0
0
0
0.004200734582030751
0.002123113888444001
0.004413180452374937
0
0.005036848957390626
0
0.00261221385613449
0
0.0018493626493630083
0.00485960698186432
0
0.004860388351190488
0
0
0.0032235556196161443
0
0.002295415573461121
0.004742494836991191
0
0
0
0.00476964855921908
0
0.0038706117490557527
0
0.004658335948737381
0
0.004381861889846141
0.015005715601777323
0.014996144457762126
0.015847267031007348
0.015037911984157831
0.014052320157419014
0.014521281846037605
0.014239292955028656
0.013907795887133614
0.014532231569709307
0.014250417588671469
0.013966211262352266
0.01377375354627966
0.013964132963421796
0.01428734209407128
0.013543320650739727
0.015085158325257812
0.015007732529013712
0.013688626859152038
0.01369762819983262
0.013186989729509489
0.013410471157701156
0.013453577520425194
0.013766292420456265
0.014042439369139794
0.013502295129888072
0.013037435668873608
0.013654365288275126
0.014318518825630785
0.014197150012956664
0.01391804843743272
0.013979621022051797
0.0022293320429500464
0.0028396800853781184
0.0012657597008332991
0.0018196036491512563
0
0
0.0023798890165241827
0
0.0023861751427863283
0
0.0016214814295236772
0.014646731362455425
0.014126102571619947
0.014833161932308455
0.013881698128720069
0.01447912001979103
0.01440650048507197
0.015124723171939294
0.014799965682511034
0.01452708065122171
0.014437886387429101
0.01516768818299008
0.014764758447834442
0.014862935469130806
0.01447178317057793
0.014572834325106478
0.014222344714923209
0.01373931329848945
0.018462170303907562
0.018244357566822095
0.018709864173130357
0.018105921022697674
0.01783818227706649
0.017756389371369505
0.01845779739711271
0.01629414472858364
0.01666009021667211
0.015559126186721452
0.016121898073389207
0.01633701675409716
0.015262682274833074
0.015558920527834032
0.02376191496813623
0.023292794617438377
0.023331162570144944
0.0236980242567941
0.025371373706716705
0.024773872861889982
0.02473851776640285
0.024669455232119778
0.02498364413289067
0.024465471820237953
0.024483867510869495
0.024177431717802792
0.024808759811418616
0.02309333028395717
0.023231602320511715
0.022836296938719917
0.023522649096494357
0.023996918931047634
0.023515691844110197
0.024122687436638375
0.024243951936286003
0.02344751812037704
0.023831746041969807
0.01559235084473787
0.016012797916947458
0.016430455926562434
0.017431413718832185
0.01717168077075653
0.016939968007270382
0.017069526250049163
0.022392805662390346
0.022778073971495092
0.022422874581910817
0.02233777050085648
0.022284099877036053
0.02268391548234348
0.02306140300617926
0.022597055647116778
0.02261328949738269
0.02289545335284732
0.02149601771179868
0.02134762849102287
0.021329525831779064
0.021962202274799694
0.0216767843945963
0.022016747011440123
0.021974111160289692
0.021544347894915435
0.02119340576353052
0.021139558310042994
0.01612889871054319
0.016963529201973835
0.017287934917028316
0.016228630450952134
0.01323620706560079
0.013146965363783835
0.01366184461704296
0.013335498032431831
0.013921222424119584
0.01367100710741687
0.014477264203138943
0.014753777675451118
0.013935439811011698
0.01421138828587788
0.0155458927842188
0.01598194320801046
0.015014611765831807
0.015036536248741338
0.016350487697045047
0.014202351013782092
0.014712616356046091
0.015380493572191114
0.00234355309477557
0
0.0012286739796501902
0.014992469033399203
0.014952340142295876
0.015390585077461725
0.01508600250606115
0.014467129573715652
0.015060434214525359
0.01443541558893739
0.01466115505540844
0.013827482663468707
0.014368794311028285
0.01399736124138329
0.014085297402562562
0.01413847152469305
0.014781337605929338
0.013962585689851875
0.01448722045519865
0.01379384787124105
0.013804638839211486
0.0142029861461743
0.01416025625675754
0.002828732669441316
0
0.0023458670722909408
0
0.0025409595813047085
0.0010711490823405597
0
0.0020391028772068017
0.0011929546113703113
0.0013515567266514433
0
0
0.002419500320176076
0
0
0
0.0016628241917021865
0.013513952323183144
0.01371537550327321
0.013582800187457165
0.01342658877902697
0.013446495756684164
0.013247821153477387
0.013533626049700506
0.013154351524723166
0.013186188972299175
0.012644337602309397
0.012899497602575192
0.012899461459018378
0.013294235427795419
0.013246737435061771
0.014379632868121621
0.013492496011502042
0.013616243986552087
0.013983752700726987
0.013395947988893205
0.013052104169768229
0.01273171581811239
0.012989390719085883
0.012620914671807924
0.012909268544781142
0.012864335350434089
0.013061529414445737
0.013389719417018258
0.01287694603894202
0.013022641802168201
0.012717254725818689
0.012528743957052096
0.0015735006380127408
0.0011275756690789336
0
0.0010646748723971142
0
0.001555286986708891
0.001019319128326559
0
0.001363842992311729
0.0023336699459501143
0
0
0.0012026534298158508
0.014575054776361653
0.01569423904484906
0.017206134697612015
0.01740645589944265
0.016831592314518612
0.01633079764329372
0.016185968280379832
0.016731194299233983
0.01650393103973228
0.015860237049270972
0.015369551883900495
0.015545571018167557
0.016498431957642286
0.016111171003709953
0.0166621650564349
0.017066914364972204
0.015156139678800754
0.015704667765928274
0.014339544290430998
0.014936560525465544
0.014525222097509427
0.014643891896029554
0.01523541338273976
0.01508541027902514
0.014779223052767744
0.015756113549291732
0.015472067069668676
0.01544899475303053
0.015146861761614764
0.0150143186655133
0.02033296526878889
0.019972309363960047
0.020029650172433962
0.02020169235465499
0.02000511910668073
0.020370039758527445
0.02074827842936125
0.020720074958928966
0.021095115021691504
0.020508645528594428
0.020707131197631314
0.02085707961175047
0.020952172708707355
0.020570218876001398
0.020563130184467506
0.01977847084931495
0.019653711036877998
0.014118932567751102
0.014355213500450428
0.013925507870445856
0.016078389204212503
0.015806829430338173
0.015077046262671846
0.013436252577789907
0.013708317281014735
0.012476378684868452
0.013142228376278006
0.012867758356067823
0.01292243727166666
0.012715445844207697
0.012364064790163576
0.01319112127313089
0.012870251412317202
0.013378514949425008
0.014477288183738536
0.01339166321948091
0.013985057977894318
0.013646710340880943
0.014966084911569252
0.013687858449610377
0.013021677930382333
0.014412151826203397
0.0014152665501092306
0
0.014761481155821305
0.014523824240507114
0.013393726543389379
0.013175459372119978
0.013264106717421408
0.01365033383563072
0.01338837500781215
0.014075685072240881
0.013995038240056955
0.014300288384684891
0.014562234192176891
0.014282100045936266
0.014485723500893605
0.014846622407523389
0
0.002122876370310065
7.807893100237072E-4
0.001258040116166813
0
0
0
0.0012680301937459564
0.0010737673265078182
0
0
0.0014667509893749077
0
0
9.192056381280776E-4
0.012767183979153161
0.012930619945741573
0.01301001460411926
0.012227251235218803
0.012524005901806854
0.0127656042796266
0.01244285638083956
0.012205718761449545
0.01254845635455721
0.01240750662245735
0.01241011658124749
0.012178680213311949
0.012123829070076357
0.012649283620741277
0.012646723128735963
0.0124525897843027
0.012680191644877306
0.012436591675929698
0.012444989556851582
0.012043602268739786
0.012810958867160934
0.012761108690848623
0.012038136785293883
0.012171754518131574
0.011727154711438427
0.01195740603204284
0.011945536779825157
0.011980108912479779
0.012735598152619777
0.012618002179893091
0.012233485091918258
0.012186388982906743
0.012364558256427629
0.012057453599276076
0.0124903376853331
0.01197919695325026
0.011934191607621906
0.01236246570141518
0.011817638335628369
0.011180600719589089
0.011728852632754727
0.011599293535914736
0.011518614814310215
0.011807173125380517
0.011397222515943883
0
0.0010056333742318516
0.0010108454520006615
0.0010115125181608424
0
8.692352520016271E-4
0
0
7.837462734729014E-4
8.92288481404345E-4
0
0
0
0.01582065247559557
0.016396372717255664
0.016138106415377
0.015710748110085212
0.0171326247900383
0.016941511518756617
0.01446628832435831
0.01484739914364669
0.019625327408096988
0.019847067506221224
0.019506258431539317
0.019487016532898346
0.019292486470633193
0.01931615369228271
0.01977549129506193
0.020054932677703217
0.018379793652300115
0.01866944801401244
0.018569730999208677
0.018270297192234882
0.018899192517207525
0.018973716108788473
0.018992585739104385
0.018683088678584425
0.019179555950176192
0.019118335302593298
0.018895443138642335
0.018515320109406094
0.018867468839081306
0.018806929505233026
0.01849230003047569
0.019322727819908132
0.018178210040487874
0.018286799222366357
0.018105082713804954
0.018004132538416685
0.01838821924647874
0.01810780351473964
0.01784240551029636
0.012961022119109992
0.013136565016163558
0.012578752178509454
0.01354452877404764
0.013175656832035474
0.013293831356437942
0.012159079994960773
0.01170081718998142
0.012254872262443492
0.012029740165501955
0.011750692942385298
0.011240493568244745
0.012347148318669761
0.011552767765379484
0.01193046903568655
0.01141568727033538
0.011618298795892821
0.013487505962517752
0.012818874662399225
0.012872762251232432
0.01305259990370682
0.012555810117039238
0.011922502372091437
0.012071475744394218
0.012348335634678187
0.012739703524130916
0.013979846913677214
0.013284770578108038
0.012962012129305759
0.0122481287755089
0.013484329409223523
0
0.0012590999206243856
0.0010965935895064134
0.011688604644258775
0.012075850500771854
0.01177561311900077
0.011872208907379502
0.012208959715226184
0.011482643556210669
0.011733931755396668
0.011109765734063385
0.011529365245779409
0.012886534582332522
0.012720808203181149
0.012755000849237646
0.0126539525036006
0.013046628366626008
0.012815473493308381
0.012397632712434901
0.012302323516325016
0.012426635498928628
0.01199714326728194
0.011403361145506547
0.011850994950021712
0.011696790368169119
0.011512862265695374
0.01341838252238464
0.013806672699146882
0.013899773833923825
0.013663417705290727
0.014014635068517743
0.013750280717367972
0.013960278280237383
0
0.0014450580325769723
0.0013427827024221075
0
7.282240048345375E-4
0
6.694507324049592E-4
8.160215937139996E-4
0
0
0.0011183779195901359
0
0
7.491674019755574E-4
6.828764987241489E-4
0.0013933328046867746
0.011308153397649047
0.01157389540665866
0.011743726082713409
0.011411952691163374
0.011510482093865043
0.011487234434616357
0.011614694103577962
0.011594214655733763
0.01138265089436691
0.011897671536021838
0.011301573483433351
0.01132071312526657
0.010895836332898916
0.011327281469189378
0.010940428691827654
0.010792765703999695
0.011132023613059582
0.011206204815534427
0.010749455623732116
0.011347332076616246
0.011254970003595184
0.0107919065940284
0.010906838831828547
0.010825677007022576
0.010578070456416198
0.010631677162708582
0.011025473283707326
0.010956158420539331
0.010604596928373781
0.011145917123967647
0.010855715127640842
0.010432948626645393
0.010462835668678729
0.010970022392655545
0.010782157085063426
0.010679435033313082
0.011195449154668932
0.010467897776923306
0.011025416747259906
0.010806312653566134
0
8.004813080801101E-4
0.0011315659376290239
0
7.978821044937363E-4
8.402432000863655E-4
8.385909771098927E-4
0
0
0.0013851594710884041
0
0.0011228964553012626
6.106440275970514E-4
0
0.0011883881384521795
9.805592985232113E-4
0
0.010903431346746843
0.011373449578607408
0.010739015407709497
0.010892643422822597
0.012071316229516823
0.012301794483261408
0.011664105460196137
0.011110664835181893
0.011477317128436526
0.017373305371526013
0.017300135835317802
0.01760153556730276
0.017529991014315568
0.01735755123772326
0.017155847452033666
0.017592249320659777
0.01713881164214495
0.017161317614270758
0.01784556113307858
0.017732018430669013
0.01801908348218263
0.017901908627333846
0.017475377737046233
0.017766738113626862
0.01762350685528541
0.017467041643340453
0.017309460585433492
0.01716909486071014
0.016982549844101993
0.017104988551604427
0.013500516240410302
0.013257129520504755
0.013097412103221552
0.013257108209379177
0.013024607268107086
0.013077449838899852
0.013445578666242795
0.01246162528845494
0.012589406822739816
0.012961738935348301
0.012808968811176604
0.012177682729277547
0.011988923396370171
0.011804583401404261
0.012150809299979162
0.012520236724052718
0.012380833201139372
0.012413684122360684
0.012593352688781822
0.012396019672518901
0.012039220071524274
0.011552374006544049
0.01178633201761829
0.012318021912439827
0.011586384934454191
0.011383532056594675
0.01073101073557648
0.011167212538293862
0.010601385253901724
0.010974091118083675
0.01034310386477529
0.01101611731032742
0.013081099359181112
0.012683389306374691
0.011875366471769087
0.010898600098453759
0.01185923080146318
0.012027350737507771
0.010701543849205308
0.01162140059160213
0.010807737451671918
0.010560976224889414
0.011233653677142314
0.010427068977245879
0.01098190878808506
0.012616373733262713
0.010784035510005223
0.011138409175520555
0.010863323233648067
0.01130110341857624
0.010744865169619753
0.0122462840082734
0.011999048458793416
0.011597659293293145
0
0.0010489858269160381
0.001182137402691884
0
0.0010783464289594496
5.219565693976655E-4
0
0.0012628232792403138
0.0010133271384140273
0
0.001490957831197022
0.001394385156871455
0
5.975727260255943E-4
0
0.0011110884736565095
5.88578451522113E-4
0.0010273149086698742
7.509378261699537E-4
0.010153160251531014
0.01072676916244158
0.010019859113948206
0.01032476381908859
0.010378792725989574
0.010654452535786216
0.01054739184437274
0.009997506273493321
0.010629752451418218
0.010663259189319332
0.010025382722715602
0.010049621525517723
0.010681811896791876
0.01098481060382303
0.010716639774679819
0.01048891224320614
0.009880750505987352
0.010414520383728771
0.010085391217803212
0.010296181322777235
0.010290538079110432
0.01036876682913155
0.009793546888522353
0.009963089856527914
0.01036362296402157
0.009835160673558859
0.010588363989020381
0.010851891370965223
0.010212637883196825
0.009926901180594696
0.010511438201715347
0.010385523718627204
0.010163678288184517
0
7.702423580420623E-4
0
8.048779473762688E-4
0
6.751885055444155E-4
0
4.7570958203787395E-4
0
5.336161874692386E-4
0
6.116610453656564E-4
0
0.011151406536972117
0.011487055338558294
0.011211362902465662
0.01128880670263489
0.011427755785317923
0.011623966054158023
0.011030126134847724
0.011457955634470942
0.011641969484375165
0.011427188255719424
0.01181054500442564
0.011035467510303772
0.011540398970048337
0.011866337213074042
0.017229572735380075
0.01678640823661545
0.016666067265850844
0.01696553981358756
0.016917116152667864
0.01696140045757933
0.01674985593566281
0.016936224599915686
0.016811690593563636
0.016764960965444973
0.01674627504105621
0.01658448035274137
0.016624296080653217
0.016426187954880295
0.016592317432431395
0.016370448012364782
0.016455953317304622
0.01647937074185216
0.01635211798552983
0.016580419958615287
0.016449023922690195
0.01640719075662345
0.016427851614944373
0.016314328395767422
0.0161729419512214
0.016292385961743455
0.016174524959822082
0.016337095105070976
0.016173573550843093
0.01624249092067432
0.016051551035705543
0.016074431516619168
0.01615074609644476
0.01590127098195831
0.01599226296040489
0.015927996394407583
0.016077140523026032
0.01602168780813323
0.011344066975128573
0.01101094338247951
0.011624408872651785
0.01187115920657385
0.011720726338597918
0.012036410065258721
0.011828027707926016
0.011323217115736502
0.01098658458534905
0.011431814879381752
0.011698081104982242
0.01220721374162772
0.012138719914269295
0.011844642267360985
0.01216998246520923
0.011766008645035167
0.012312137102543893
0.01182707901875671
0.011095557489819627
0.011455478481690708
0.011491620292612685
0.010319526949593236
0.010704644115673484
0.010284077524704551
0.010522724666452443
0.009768992994220101
0.00975897530069681
0.01017335077333426
0.010073978218829929
0.010125728715691396
0.010262075984973761
0.010544862978631135
0.010394189225713163
0.01070951940627937
0.010783683731507156
0.011138338077963337
0.010045467223440402
0.010273101024034864
0.010868089294434643
0.009914036960040888
0.011829300569240253
4.764971029227112E-4
0.010538883617998991
0.010765865478710723
0.010522714285766373
0.010989080535297544
0.011214413786229076
0.010888293682117977
0.010841183474563504
0.011100849191253355
0.010781446716403078
0.010713630991167546
0.010605550754161466
0.010593499368675261
8.100650244032203E-4
0
5.706975642312556E-4
0
8.255641242147156E-4
0
0
3.987293943560169E-4
0
8.624852817511053E-4
0
7.052768664297709E-4
7.978019627106422E-4
0
6.58461917163443E-4
0.010153213214999996
0.009837664401457176
0.01022971022956823
0.010461062994329503
0.010080575515218078
0.010269110765029722
0.01023384366889593
0.009635714293748517
0.00983806091089123
0.009844282024468427
0.009738606330633994
0.01016607330627264
0.009531889729242508
0.010023764501596595
0.009974089853355822
0.01026358956481728
0.010350779714902558
0.010497369253688948
0.01003097841855598
0.009612638992163138
0.010072898686781214
0.009986704116031782
0.00994663042449673
0.009414770171794871
0.00954984528962901
0.009998834445500525
0
4.1508504066794665E-4
6.634799887421574E-4
0
3.708101871089631E-4
0
5.640946488321225E-4
0
3.687540186081209E-4
0
3.5718133587658136E-4
7.169529433355385E-4
5.690113770631136E-4
0
0.011535244080120905
0.011586960762802604
0.010260385406453723
0.010406221433899241
0.010600276099327814
0.010683841756301795
0.010328686176730073
0.01074578451702962
0.011002314171278473
0.010754606121890773
0.01091239944909939
0.011254667462777508
0.011119943804767808
0.011353299410470167
0.016236303787787322
0.016047004166566955
0.015934815460892746
0.01615330844004112
0.01596281447395356
0.01595003234147168
0.01608867624756834
0.015814945187698774
0.015818090388580678
0.016042387711824927
0.015924235598412613
0.01584871704811053
0.015984767712098946
0.01588226053489714
0.015815425341371862
0.015854549063773572
0.015800575656530255
0.015779196270098668
0.0159660868190846
0.016014468786054056
0.011040408557552665
0.01117416245303088
0.010837561698378864
0.011105732614677134
0.011187067102382127
0.01146193062855006
0.011482311543563987
0.011261496666053113
0.011487281545207782
0.010374338097995574
0.010070222575449981
0.010252711216499798
0.010535146530231238
0.009715083013395529
0.009553351460711854
0.010066046390205316
0.009977360356345565
0.009911701005770187
0.009388783132221634
0.009915299427475
0.009845268912404444
0.010178822996217822
0.010292964800993452
0.009655714923495151
0.010400948348724902
0.010632471828345732
0.010878787928229225
0.00990666118654266
0.010137976036091758
0.011152008611631641
0.009892401349265466
0.010616969886736001
0.010538359471072555
0.01026004226196365
0.009916902511094424
0.010177479681270706
0.010410082191633968
0.010190130554878248
0.01029970029798252
0.009698255055543442
0.010050422868836504
0.009634147778700421
0.01010172878368912
0.009811035735417343