<?xml version="1.0" encoding="UTF-8"?>
<VTKFile type="UnstructuredGrid" version="0.1" byte_order="LittleEndian">
<UnstructuredGrid>
<Piece NumberOfPoints="6822" NumberOfCells="35601">
<PointData>
<DataArray type="Float64" Name="&#x4f4d;&#x79fb;&#x5927;&#x5c0f;" Format="ascii">
0.021340746047741617
0.02160025441703831
0.021559550129499668
0.02151787866465971
0.022683924156196078
0.02234033515292905
0.02268189595247183
0.020774118531829342
0.020358366084258592
0.02208991482400931
0.021625911362559456
0.02180607140084256
0.0198080893969679
0.020774887900953627
0.021470584352519768
0.02142191688378402
0.020590560681206703
0.021541118809710186
0.02153334253174483
0.02085545681020924
0.021440492424188683
0.021498177270326026
0.021604236403380408
0.0216042015452103
0.021645718504474585
0.021037982404124862
0.02164575582760909
0.021306842469634102
0.02164533617213327
0.02127619203775535
0.021611031397354735
0.020919701079049516
0.021242551000512113
0.021645831091377573
0.021053212890648883
0.02159909922746123
0.021527062881599498
0.021273842432404374
0.021608387585357106
0.021645339200292848
0.021225536944573995
0.021616632916899282
0.02164721555751417
0.021644318281267703
0.021380772987490162
0.020535505625706316
0.021358858032010073
0.02093970628265362
0.02143895944708518
0.020816562425623523
0.021532010354912035
0.021437629579521368
0.021362740903803266
0.02056488566033426
0.021559268904317346
0.020973412177660467
0.021315763881307306
0.020947579187915902
0.02164566837713262
0.021335626706464935
0.021150153658180817
0.021052849519665576
0.02043346986518219
0.02267805120440123
0.02216043000296568
0.020354824450240158
0.02223474182679158
0.02073076308582866
0.022679168208525866
0.020288237907934843
0.020385112068185014
0.021801521340271045
0.02122282081176717
0.021609124951806013
0.021561684938629585
0.021351015713607275
0.021616748719779293
0.02160042944797874
0.021518812166271693
0.021261234488098593
0.021645331074354634
0.021181130458877026
0.02146475046194927
0.021422989501826886
0.019441606634796434
0.021526572238110758
0.020462955522612725
0.021391528202149273
0.019752915200062972
0.021481112000057197
0.019880638189986297
0.019684917914740644
0.021372179845529086
0.02137269566260989
0.021354275683680576
0.02027759477423362
0.021379669197078423
0.020797728349138896
0.020588553962708103
0.02042237253080003
0.02164516806198108
0.02133184430672799
0.02164661635050328
0.020668812944746998
0.02138980692215123
0.021359462889027916
0.019880098152412422
0.02075598940255913
0.021032794589309033
0.021281387097872025
0.02126792741298775
0.020971424610940457
0.0206904295225987
0.021119510374655856
0.0216225462427645
0.021169658595358024
0.0216454274055537
0.021102878768642738
0.021245832143025445
0.020703881157478333
0.020586728839354303
0.020825190268432155
0.020352533998690244
0.02084946601053969
0.020362667015847772
0.0205135063263243
0.02084160440247538
0.021215718821879857
0.021222088135832266
0.020911247839617793
0.021278919964005102
0.02077977826020899
0.020022149447207375
0.020850033157492568
0.020939128365377344
0.020611175732056283
0.02059536361231261
0.02021658857294374
0.02027584957359528
0.02208772734300574
0.020271820946511428
0.02045062558072552
0.021474097943889627
0.019960609463489445
0.021628972752346
0.019755357553296517
0.019772694702505037
0.021389280544276714
0.021236317696563364
0.021115457425038328
0.02080419772290733
0.02003970196308325
0.019354195954590276
0.019903503001419413
0.01965631099426279
0.019801031742111584
0.019915816977036333
0.021149839023199963
0.020916474226268408
0.020726572416071808
0.02031621786564116
0.02060035846176865
0.020405153876334608
0.02034251169748954
0.01957418960584822
0.020349058127995368
0.019802983397192605
0.020508273228530622
0.01982324285365751
0.020345297677371428
0.020134649061474958
0.020756762500480537
0.020227994192967072
0.020577051322858822
0.020745738144870133
0.020362102422802553
0.020140255088984663
0.02025638777164588
0.019925510906586837
0.019589627103813352
0.0197764099611956
0.0206341615735439
0.020478037962193833
0.020597820464512945
0.02028397262473031
0.01966481615465089
0.0200601347155067
0.01944201871185935
0.019774653005863112
0.01915513368264666
0.01922037333554511
0.019844686732056745
0.01907158430937362
0.019561064692000904
0.019729878460445112
0.019076160201260153
0.020049369767164947
0.018556029707894495
0.019543709169161535
0.01908724279309039
0.018730840387723324
0.019105164964319927
0.018188030359107158
0.019535419416575137
0.01993363639979722
0.019570972286585265
0.018653935844040938
0.018767165336447806
0.019229718120967115
0.0182847422456427
0.019046861064777907
0.017726166235092104
0.01910340641987716
0.017972273123160246
0.018328389403136188
0.01776151072043009
0.019219736316725793
0.017559417880454634
0.018627761930393776
0.01714026837573118
0.018111711610351022
0.017169809737127992
0.014487009206224422
0.014252461681570268
0.014527602796498396
0.014483086382601545
0.014126181040982823
0.014245999998778984
0.01867345196471314
0.017617818624012332
0.018496287826941956
0.019114831831428047
0.017142391038270702
0.018324185017184993
0.017056546860845893
0.017436134323062936
0.018178854439009524
0.018351295742920295
0.01762976884712295
0.016158224290789
0.014357981485344035
0.0145553013211905
0.015731842284169167
0.016929387159060498
0.015425120286513211
0
0.0016380428604452616
0
0
9.549817941251847E-4
0
0.0017160568483744168
0.0010338341184047484
0
6.467461577798003E-4
0.014212576737559908
0.014485799235133377
0.014247415148076654
0.013983600076923392
0.014546405527206511
0.014156745630706584
0.01458090348590408
0.013913690546493792
0.013779238307112801
0.01758355391648203
0.018116680400208297
0.016066061170492193
0.017173008868066723
0.017194847903528803
0.015169118303934862
0.015322565790712298
0.017231072869536786
0.014444531460668871
0.016299091111235897
0.014766400517326033
0.014140054950258692
0.01448629014600821
0.014486015228246262
0.014383251770346665
0.014487803423874578
0.014163247491672573
0.014525997700238744
0.014484092013040585
0.014210871108745913
0.014526742287141183
0.014250355603514288
0.014486904025207935
0.01455517601562179
0.01424846816549859
0.014129389396701783
0.01448787441132526
0.014485329469533128
0.014537831925440363
0.01416872589985523
0.014167526265710688
0.014550970139823817
0.014483524012660226
0.014593102013115148
0.014183736841028667
0.014156246925562223
0.014311839290098253
0.014558000691568674
0.014487191560227345
0.014580539731423385
0.014352728899759245
0.014145290630576478
0.014126794083338258
0.01425562033634415
0.014557673369248228
0.014590256398052727
0.01428003737957876
0.01415549365838827
0.014549289483131398
0.014556995639412042
0.015686337698029715
0.013333306342694317
0.01380282887259105
0.01262796487173623
0
7.828324555949363E-4
0
0
8.880986325259344E-4
4.259467596341679E-4
0.001138744498326432
0
0
0.0018741026963138702
0.014080517295432863
0.01386127173403703
0.013926907145385806
0.013762891708568014
0.013627295578191702
0.013619996196857
0.01459183186576062
0.014257408580842772
0.014597207640470728
0.013985400921200427
0.01343115498467963
0.01344564012878971
0.013167451147786476
0.014006892615725323
0.015387627200312585
0.016321560798626684
0.014383285746807733
0.015093542106259076
0.016934204998640384
0.01586442455641585
0.013337218022302864
0.013315645800236866
0.015184494757302538
0.013990141186298712
0.01385967018146161
0.01388519580373767
0.013782772805676972
0.013971033737942564
0.013821240450000351
0.013832113778491991
0.013848435718133814
0.014047503294854215
0.013862113615464314
0.013855011789830366
0.013613228066591735
0.01363548726378272
0.013607239597749381
0.013281776053294501
0.013487295341933438
0.013446198644102892
0.013120824224682682
0.014574804393426207
0.013972352466583711
0.014286468545839036
0.014297487674831468
0.014191826842406002
0.014166475576037502
0.014058258784483914
0.013855942852337181
0.013839947745249449
0.013601707418077454
0.01404415547128679
0.013667682658664007
0.013781646398900197
0.014183034745458853
0.014593058407470433
0.013908723661762646
0.013588643202875337
0.013237697738799493
0.01336991774297918
0.0134665932991771
0.01422343317236502
0.014591515107644719
0.014595599237446659
0.014591417856598957
0.014061992260658792
0.01416426636332924
0.014223214936842558
0.014594207954495479
0.014273701799696765
0.014594086072690844
0.014595566767718395
0.014589792986951488
0.013339543499291812
0.014462458754011583
0.0117668221514145
0.014153209444984523
0.011164853697810425
0
7.056960246945254E-4
0
7.331976748139942E-4
0
8.019686875080981E-4
0
4.85934329499803E-4
8.722424157198266E-4
0.0010152152456058656
0.0018765724247590682
9.122257944167384E-4
0
0
0
5.362301401974587E-4
9.800812559781638E-4
0.0019300327045601575
0
4.943089066302119E-4
0.013517300407884635
0.011699276920739514
0.011022132900196715
0.01284049769542421
0.01418395334578335
0.014574224945744896
0.013743402329521773
0.01278672093736361
0.012628956038657184
0.012989451657005994
0.012852310084553776
0.012974546840139342
0.015116788692589667
0.013823726743194318
0.015661448639538916
0.013340964034853629
0.012602999651933145
0.014337936117323202
0.012241385194308866
0.013504304922943905
0.013491541292291702
0.013622132495695561
0.013611328913362418
0.013561723653365271
0.013303310399592125
0.013648101251578674
0.013683022398069292
0.013584589503312672
0.013366921910325595
0.013199640045566804
0.013365130094186169
0.013377179791991352
0.014153982044214506
0.012556152131129256
0.013521951451342438
0.013511064902910068
0.013074628931922351
0.010512814437659583
0.012726792943291853
0.013185086929310998
0.012805051416031422
0.01311571972139852
0.01292636506511851
0.013134728058630562
0.012227419528765522
0.012668011170980568
0.012741326156820996
0.01159619310909874
0.011453536146906453
0.012890338853909158
0.012253034440296426
0.01415744532873142
0.013895336792994427
0.014588150750844823
0.014005905750154505
0.013268131616384383
0.013442055003468205
0.01325564648298433
0.013124526262017518
0.013433912112876747
0.01400257323754467
0.013994538645639397
0.01459042981800285
0.014546906003726266
0.01393738372775089
0.014556059759967818
0.014558428618689612
0.013676841309270306
0.01456526912589288
0.013971329966309327
0.01394512640576673
0.011384078093056358
0.011921090008482703
0
5.139142716986399E-4
0
0
0
3.5354268451842457E-4
9.146949074093106E-4
0
6.297451102543694E-4
0
0
8.465364382196152E-4
0.00139035594449121
0.0019642111514456247
0
0
0.0011518728838223193
5.712747606135809E-4
0.0019643834403286556
0
9.64222053872399E-4
0
0.0010560435933418268
0
0
4.121658615022766E-4
3.07762011314515E-4
0.01290803630079812
0.010696874690514361
0.010854448149540145
0.012748219256413555
0.014514883043306764
0.01448334665447473
0.011616601039611266
0.013325529137411956
0.014456870563419532
0.011710070475272883
0.012214099440229758
0.013064712109526562
0.013520082890850927
0.01147200318653438
0.012995023456166467
0.01227436171796708
0.012858911112285877
0.011935817256584828
0.01270213097850332
0.012870919045698344
0.013132054060206297
0.01313967566296293
0.012583104145524864
0.01293158998720989
0.012803729784516958
0.01267564406778513
0.012953748226207503
0.011076367190631146
0.01216239820475485
0.010885050863089989
0.010978373247622571
0.010652555715493913
0.009985308727362448
0.012652424910379004
0.01263657452971068
0.01098008535690473
0.012650302665951414
0.012742723980673084
0.012091863327507333
0.011975121405930007
0.012103293671338331
0.011957391251104892
0.012687517890916655
0.010688597529542291
0.011261402998395146
0.010835348553060141
0.01454694631379186
0.013683903873429262
0.012213357090822111
0.012851041955030755
0.012742371386065878
0.012679256769070456
0.012511930617038891
0.012838511568994501
0.01222543205310962
0.01159941633242549
0.013500568856291487
0.013147971355806582
0.01380575935048655
0.013794936396415306
0.01449474201215718
0.01451631777439252
0.013362592604676869
4.070824623769408E-4
0
3.4596035358300654E-4
0
0.0019789222611197063
0
0.001288022080922629
9.316446790054144E-4
0.0019200030366201303
0
0
0
0
3.5483530722775817E-4
4.14172874024157E-4
6.866571588056309E-4
4.320771729841439E-4
0
0
0
3.162246683081644E-4
0
5.640779301568186E-4
0
9.89442204140385E-4
5.750799665745951E-4
0
0
3.98443173097864E-4
2.8126090244988476E-4
0
9.021929413937647E-4
0
0.001687586023522313
0
0.0015583087291621475
0
0
3.517960236632523E-4
0
4.571476247986606E-4
0.001266958517040621
9.457828704345444E-4
4.7016023111187856E-4
0.010460477114487549
0.014445490995357574
0.014423687530245094
0.013070803200687405
0.010645578561192694
0.012903632442684094
0.012663399440393203
0.010979466744224451
0.010674365917061715
0.011727380526965186
0.012641019743447612
0.011263395016678944
0.010687771343281584
0.011601332809048619
0.010276446892515395
0.010793447389575021
0.011056027802683721
0.014403623580429263
0.014419207110525847
0.014435197721290132
0.012707019313932255
0.01447381751956024
0.013388124843083491
0.010850034592615822
0.013748805592644018
0.014452473581685612
0.01442252314346309
0.01286255514979767
0.012944381627613114
0.0129038948083827
0.014420879588775611
0.01440671672389716
0.013281529775401804
0.01439979188975253
0.0144173868722591
0.014403039287015697
0.013439444849799455
0.013063640367663889
4.2351061526932024E-4
2.9793207998375914E-4
0
5.707122814992903E-4
0.00108369052527613
0
6.097005514029163E-4
0
3.6814937362235367E-4
4.6277925326182457E-4
5.076666585487089E-4
0
0
6.332220107494643E-4
0
4.5054454184896407E-4
0
4.761784755063897E-4
0
7.18724346806282E-4
4.809911690157707E-4
0
0
0
3.314541485718315E-4
2.9511870124470426E-4
2.7074575837077544E-4
0
2.0748262578067228E-4
0
7.363835392896586E-4
0
0
2.9534735491236903E-4
7.822235401072892E-4
0.012863501428681529
0.012917914196195097
0.012814149910026247
0.009981430078790387
0.014170719716337097
0.013080981312384608
0.013950717712155895
0.01443549630483154
0.014104900562677746
0.013088831040811181
0.013720523141019599
0.013488891386597104
0.012938997009228516
0.014449528535626508
0.012237917562377909
0.013198439078489188
0.014448487154174267
0.014128961694433244
1.975274008422616E-4
2.0634478591020648E-4
0
0
2.705988941577781E-4
2.1286189145469308E-4
0
3.7431203841640023E-4
0
5.342026483485266E-4
0
3.052373844176241E-4
0
7.074171424938243E-4
4.363344786461743E-4
0
0
4.456480637127761E-4
0
4.2083555150527975E-4
0
0
2.545376870526709E-4
0
2.3805616868018213E-4
0
2.888202759893092E-4
3.200711702983058E-4
0
0
2.5791464638486435E-4
4.420332560837239E-4
7.031865214533224E-4
0.012064304020732714
0.012826862221064777
0.013786697902561125
0.012917057488582807
0.013118692950372405
0.01159147254013296
0.011889299947539848
0.013322608216690705
0.013958437413448765
0.01250575475995561
0.01202453539845877
0.013485273431825267
2.0647624477492232E-4
0
0
2.1263382008912982E-4
2.1960451029810264E-4
1.7725152506973751E-4
0
1.3727390741166034E-4
0
4.287226093017995E-4
0
0
3.7791043899669985E-4
4.112905039657797E-4
0
3.6753501659679636E-4
3.6499644456593043E-4
0
3.702885249470666E-4
0
0
1.890479928040242E-4
0
2.2211523118214761E-4
0
3.37461856121671E-4
0
3.6997339392150246E-4
3.55253399583899E-4
0
4.58625631799689E-4
0.011457730662096875
0.012430776031179983
0.012046675765987004
0.010941709661734035
0.010638782849241387
0.011599316267551773
0.010236684997612721
0.009924291490869016
0.01203507228712488
0.011596806234382256
0.012557699708105661
0.011604997255158398
0.012909958684471904
0.011581244520868896
1.5585492315220084E-4
0
0
1.4956504193506737E-4
1.3713771641140832E-4
0
1.961579778911547E-4
1.461909873176102E-4
0
0
3.6544990979179366E-4
0
0
2.9181205372956156E-4
2.5056989215464846E-4
2.691927856292052E-4
0
2.818298177908738E-4
3.0385142224959656E-4
0
4.0539904418244213E-4
0
3.3390311954241154E-4
0
2.70028789598993E-4
2.902866370833154E-4
2.395294024832806E-4
0
0
0
2.649348061813695E-4
0.010823523745899323
0.010380903254980646
0.01169639125470323
0.008927728389545544
0.010248820863186127
0.011627454860353955
0.012037184323476637
0.010083052883784673
0
0
1.0069098119857131E-4
9.259856013730607E-5
0
1.2676535769391833E-4
0
1.688261450863678E-4
6.824711784126909E-5
8.772200482176226E-5
1.9421469072800738E-4
0
0
0
0
2.6262383075565965E-4
2.6207628456568165E-4
2.178985591671714E-4
2.5435417097446314E-4
0
0
2.2445968590360715E-4
1.0273846722829988E-4
1.5774127812880718E-4
2.32801374722133E-4
0
2.3815281202532133E-4
0
0
0
2.756977474049078E-4
2.5271984989878426E-4
3.981428871441417E-4
0.010237098173728523
0.009572628756040582
0.008670468208144334
0.008943553579955259
0.010250267323264391
0.009930869224989881
0
0
5.9915968475275146E-5
5.609854243481452E-5
0
5.731892899270061E-5
2.764021493411376E-5
0
3.0405160620929962E-5
6.942820176370556E-5
0
6.053498364314609E-5
8.507140507543694E-5
9.00621481684356E-5
0
0
2.3217632506242455E-4
0
2.1879201276175754E-4
2.008327499334814E-4
4.0655223217185744E-4
0
1.224800733349694E-4
1.227855259734335E-4
0
1.9159807641695202E-4
1.4867176920253276E-4
0
2.0843096237590275E-4
2.0357234666585816E-4
0
1.4175011328729342E-4
0
2.461512249329742E-4
0
1.6581403751603728E-4
3.3136238928954334E-4
0
1.6230569153317365E-4
0
0
1.3669784261529971E-4
1.0914241181984517E-4
7.887212175473696E-5
0
0
1.0091562394596783E-4
0
1.4190273257698018E-4
0
6.528782508930877E-5
0
3.2815057397718357E-5
0
3.6805987082861294E-5
0
6.331786064579053E-5
0
9.211039907401342E-5
0
2.128530368914486E-4
1.9191004825886047E-4
0
0
1.1789892339785029E-4
0
1.3639462137670519E-4
0
1.609640026948169E-4
0
0
1.8557724809397562E-4
2.705192566515805E-4
0
0
2.407813934242739E-4
0
0
3.737248445212923E-4
3.65314521580397E-4
0
0
1.6150261483177937E-4
0
1.3491130766131364E-4
1.2334359579744276E-4
0
0
1.0942264577203861E-4
0
6.470148549703304E-5
0
3.8297930658237604E-5
4.7378993164993726E-5
0
6.285717864722947E-5
0
5.63773307072726E-5
8.732235782865222E-5
0
1.3686277926747655E-4
0
2.7829529222991287E-4
0
1.0446648126193446E-4
0
1.4155992872453175E-4
0
1.1135875812115643E-4
0
2.1278675514563016E-4
0
3.2682714053643836E-4
3.792950287680204E-4
4.5256679532086104E-4
0
0
7.684380287872485E-4
6.507822830894064E-4
0
0.001081658047385997
4.862184100155442E-4
2.58459759941855E-4
0
6.841899197199406E-4
5.956510893806918E-4
0
0
0
1.9994715784931938E-4
0
2.7162364499832745E-4
1.8562888290059884E-4
1.2742285636146874E-4
1.1428294088217931E-4
0
2.108348844648713E-4
8.016544605573109E-5
0
0
8.652266445869549E-5
4.72722000661673E-5
7.195790852571031E-5
0
0
5.210881708803199E-5
0
3.759713131020808E-5
3.272653240185689E-5
1.28821626707088E-4
0
8.179120466899954E-5
0
1.1734272523494369E-4
5.781515382567013E-5
0
1.296172739329872E-4
0
1.5579712662934527E-4
2.08930149934488E-4
0
3.6592048768400976E-4
0
0
0.001196068690562382
4.018684963310755E-4
4.1886044137386396E-4
3.2704428546642775E-4
0
0
2.5911756593730804E-4
0
0
3.102746439307917E-4
0
1.3230989890479014E-4
0
1.1857334660153376E-4
0
1.1040905746441122E-4
0
7.869777912334892E-5
1.1826764107555393E-4
6.719240944443813E-5
0
5.292740284310406E-5
0
0
6.410126908683719E-5
8.340443908891455E-5
0
9.136717122780171E-5
0
6.423078914769787E-5
0
1.114967560544962E-4
8.625688326356717E-5
5.9085429364632486E-5
2.2898272140776604E-4
0
3.362408917438437E-4
0
9.150920570311212E-4
0
3.599795477577183E-4
0
0
0
2.217553429798511E-4
3.3596795661041366E-4
0
1.0157942731618062E-4
1.4215021469403614E-4
0
0
0
9.854056263789901E-5
8.800753139811326E-5
0
1.394700169395903E-4
1.483100171251399E-4
0
9.490824833227829E-5
5.140183187176276E-5
7.46577354731967E-5
6.384102421394571E-5
5.3205132586876885E-5
0
0
0
4.1278695793097814E-5
3.0832043501720943E-4
0
0.0013113834009100894
7.313950267664528E-4
0
8.402951742488733E-4
3.9129699874753516E-4
0
4.175633677363579E-4
4.550286306151256E-4
0
3.6152171564722796E-4
0
3.9401451998233777E-4
1.7312335744684539E-4
0
0
1.5219934648358672E-4
0
1.3866287842897302E-4
0
1.3692338146455512E-4
0
0
8.19820028516538E-5
0
6.259778855158922E-5
8.614737468547873E-5
0
6.876213516356901E-5
7.880512579931857E-5
3.572116763514009E-4
3.676498571538387E-4
0
0.0013034873034882238
0
0.001300816347067576
3.6247495761387594E-4
0
4.078061914476763E-4
3.4846883641727875E-4
0
2.3035316123745008E-4
0
0
2.0658217900245605E-4
0
3.106493932626755E-4
0
2.3365075168028582E-4
2.378954623819311E-4
2.1961132927123423E-4
0
2.7114834602677383E-4
1.0797352198134521E-4
0
0
1.3759304539368253E-4
0
1.1493871783284766E-4
4.3140276552102255E-4
2.9574080066823897E-4
0
9.968349025705216E-4
0.001306358534118966
0
0
4.4891376332079004E-4
0
2.2262670693034184E-4
0
0
2.1537616396534356E-4
0
2.2856569231003056E-4
0
2.1348709859813982E-4
1.555491634267109E-4
0
1.9680043554324778E-4
0
1.8997333681769742E-4
5.001662074943773E-4
2.782163718777454E-4
0
6.782896837731739E-4
0
8.177340057270153E-4
5.618016621599107E-4
0
7.709885751979348E-4
0
0
0
2.5164400599304225E-4
0
2.6596636441297985E-4
0
2.8332376448204384E-4
0
2.9083286378447416E-4
6.155935235134382E-4
2.781428832429079E-4
0
0.0013122251633701986
0
0.0012693087675550879
0
4.155647259998731E-4
0
4.4347575475126434E-4
0
3.99723397915339E-4
3.386202733173326E-4
0
3.685681777852284E-4
0
3.7317852710060806E-4
0
4.0518040430016355E-4
0
9.727526986987302E-4
0
5.409899302895213E-4
0
5.319659131223093E-4
0
3.4214310002604755E-4
0
4.6671997890138697E-4
0
0
0.0012204546916951672
0.001163706126911159
0
6.064230481004476E-4
5.832292016378997E-4
0
6.878868876529227E-4
0
0
0.001078455965018312
0
7.684547406639857E-4
0
0.02103612507855754
0.019706734065881668
0.02021265941172781
0.02098127150718321
0.020342074332219098
0.018945774575248372
0.018409735157966144
0.017140246683565716
0.01785260085809098
0.018589051013762445
0.01794806917337669
0.019898195007356605
0.019629240191220886
0.01845367115893268
0.020644683161308932
0.020289345709782733
0.019329621699864023
0.0189747593645049
0.020332257734306133
0.020793345107634073
0.020083013610177267
0.02006096596140462
0.019815487292524383
0.019606437166854254
0.020429587610938053
0.02055177212171649
0.02060721767106199
0.019570924010999195
0.019919544474718342
0.020234977066871336
0.019960693707311662
0.02023218207305298
0.019191841263729918
0.01869660467751416
0.019308069167010663
0.01870421156071386
0.01906051883310124
0.018414312103357703
0.017524388240564563
0.018374030432027306
0.018936054092073756
0.019703734663208905
0.018889399650269593
0.014997184970224843
0.015309247528285932
0.015880708549558302
0.01622766998743317
0.0161487984267521
0.013154787563583665
0.013392069092659241
0.013861274693608046
0.012577905204854724
0.012204589729538811
0.011843310213899866
0.014419380279464442
0.017401822467008565
0.016082901264196994
0.0157011406092773
0.014970983470396184
0.01704740940741324
0.016652300820117236
0.017527929094568698
0.017806415985950844
0.018654354701940382
0.017870886267338577
0.01816911161980988
0.02105772583021293
0.020870404299906758
0.020497512912712904
0.020096448887291698
0.01837209638357906
0.01947489426781855
0.019597125220081512
0.01960925107384897
0.01917972558280331
0.020071617513470915
0.02001955989332205
0.019313147628512772
0.020334242114703766
0.019100935707874304
0.019040449488207715
0.018630323208441338
0.018554078844857932
0.01981483441865158
0.01977518020803653
0.019650944997529843
0.019119444712588515
0.019001106295271866
0.018676329819512526
0.01948410548268069
0.019283470902632677
0.01867030579457847
0.0183906148717174
0.017672523922119713
0.016264612528199166
0.01727305735505499
0.01833585241493245
0.01157247974608505
0.017092943432751726
0.013816944775294484
0.0119462175064985
0.012686915585038502
0.011683139523791231
0.011960793092803292
0.01110427773974876
0.011207019568663518
0.010772231407610829
0.010996445020700539
0.016650933864797046
0.015295110069015051
0.01702591544527539
0.016719988645065645
0.015902121883681175
0.01479442506688944
0.017136924332950124
0.016360204894015795
0.017911207490315606
0.017966618283854714
0.016171452075937398
0.0183697281702912
0.01800976093766368
0.01848894605017184
0.014416105531652844
0.014324791208887236
0.013482644536438273
0.014280101384707216
0.014017494333527164
0.014586749791790974
0.015123822425179827
0.011702967248055274
0.013088816095690877
0.01300469064275111
0.011719760002371763
0.013330188826221553
0.01163251049477826
0.013330980006932556
0.01684584301082935
0.015012662881362122
0.015595038877220618
0.014598560975901157
0.016042030666812073
0.01762629227281876
0.017251973842894428
0.019803299176896143
0.019283959040761064
0.01923232211187548
0.01910327912090465
0.01960566437389484
0.01899894056629647
0.017579270743519063
0.017873491056933925
0.016826172329211908
0.018205748470042478
0.0183283226919579
0.01792087425358668
0.017381010457541552
0.015726273636909042
0.01818314608475413
0.019172832755817985
0.018471982527391753
0.017411291504024987
0.01655834986124776
0.016860370780020856
0.016089628820997005
0.018733273708137817
0.01807100865322914
0.01790615615315172
0.017405251861147827
0.017076676325437686
0.009696434605490604
0.009949463809045682
0.009597424168856028
0.015578668338524114
0.01663220995688876
0.012860964712752108
0.0162296667106625
0.01023252156811708
0.009844786801656511
0.009086636074103536
0.009087559289127798
0.010389140450704772
0.00905291823561104
0.01025642219311505
0.008909358983243685
0.015153617183942517
0.010375285358041343
0.011472397738189257
0.014116041471936699
0.013627717653636294
0.012613404548481344
0.013941131837405583
0.013628576761397969
0.013395205435393713
0.012419700262327053
0.012764206780999092
0.010632781304058312
0.011547171392066298
0.01115686810804755
0.009576902060684898
0.010329450692038314
0.010193641247764158
0.010303456294157019
0.009445386939687002
0.01067636384145665
0.009234539858813081
0.010639775423133898
0.010072864020917721
0.010754176447063897
0.014029719640727965
0.0141387782942621
0.014702125365460946
0.0149981400210986
0.0144022590751474
0.015219031232042289
0.01568621428088301
0.015489771890849905
0.015154351368230236
0.014827128496470316
0.016052376845111325
0.017046147908844983
0.01086127412060436
0.012173540967475879
0.01352702049448601
0.013105752309992284
0.014080365808226596
0.01196636975982851
0.011857541548484894
0.012559392085539961
0.010802652539833339
0.012484336104599062
0.014447697287827454
0.014706186212410929
0.015343432610474312
0.01496926117810793
0.014029042078100686
0.016005289080277856
0.018866759014957327
0.01811496584077309
0.01682011814515651
0.018549506404584755
0.017435982148352874
0.016278735553700727
0.016489747313738593
0.01604134155407974
0.015355838047703132
0.016169101971440166
0.015542939632597933
0.017129071609079834
0.018246433988464813
0.016565753715291887
0.01610724053614722
0.016696459588273708
0.015491227243087104
0.01135284643438219
0.010281573553456689
0.0100697301897633
0.01038955464764881
0.00846521506544143
0.008542097361812603
0.008095420234135372
0.008019779739694918
0.006972331070817641
0.007218568187152721
0.007113415219223915
0.007420402718428993
0.0076195868648773375
0.00935048644182963
0.009381406653625858
0.009107125365921504
0.009135361436871022
0.008293057589435346
0.008780593082340906
0.00859619882157048
0.007700752640398072
0.007961397485880957
0.008099944623073334
0.008186681466115937
0.008230014747464256
0.014814815332460913
0.015847220829169402
0.012865370136088924
0.011871730091517048
0.011247483732843146
0.010465606248125682
0.012739381875363366
0.012637000301931534
0.01180225568942655
0.015018436157278488
0.008835251619385096
0.007969566414169243
0.009067865277972013
0.006789859207424316
0.0064207150575882905
0.006747741159827194
0.007120087856259144
0.006182322941036516
0.006018776156205175
0.006293457159689981
0.005520935283927311
0.006337509441520717
0.0017409947110828999
0.0026527509004319635
0.002039721322140017
0.003228243111657268
0.0024733303766703036
0.003628969123016546
0.0030745244453911223
0.004118587349670744
0.005510308757906577
0.005662546885427991
0.004758131291884294
0.005268258890929425
0.005532820712709081
0.004842354621572991
0.004909661208921387
0.00450681060611466
0.005585053216565995
0.007886758856241348
0.006703392720787823
0.006496786346131083
0.006130870367669502
0.006444801689724474
0.013160207318112275
0.00915842255701825
0.009760051581839272
0.013135364766753348
0.012433084341755246
0.012945099498785084
0.012088629829605796
0.011558341629513018
0.01098877016019077
0.011427665104391875
0.0112320460406891
0.011562084398057348
0.010438108499493583
0.009394522609596615
0.010083706118965028
0.01066437201207737
0.010943496791171028
0.011218509194071415
0.010493108257415477
0.011573909033391765
0.008429465078843802
0.00776695754035149
0.007675844248984889
0.007487593318880144
0.008648203702370098
0.00877328363444277
0.008979346471105152
0.008020862570192437
0.009711207741571888
0.009665585971577214
0.01023045015838677
0.009396772877417716
0.009012013927094135
0.008647748519047073
0.008766900652961098
0.009735060504531485
0.008924340719831706
0.010460457419994013
0.00928922602785495
0.009899333327141038
0.01150235232020713
0.012801311652817011
0.013152260239812365
0.01339108905120723
0.010624807359788381
0.014930918900619776
0.01374331050994306
0.01336940449004559
0.013321092864385174
0.013673472188194861
0.013680325156192335
0.014032340670997534
0.015094996018084913
0.009259048599727392
0.009731461878396207
0.009631650667324276
0.011842492226366292
0.01186701917211636
0.012045311994702322
0.01231598639801936
0.0100120342495163
0.010728484162997456
0.010577658874247102
0.011685381984488373
0.012273573293615801
0.013524558782032016
0.013762361375807929
0.0120440861773937
0.017817597199622778
0.016118262957375614
0.016792797826813623
0.01685105166866984
0.014457980550380079
0.015094136606843365
0.014406286762181902
0.013451409784842789
0.01516555397267749
0.014453025748412843
0.01667487007121543
0.015446620584080918
0.009814285469990797
0.009445779787343012
0.008996763835688168
0.006169592835500624
0.007018797160474057
0.007428571133761968
0.007526683445210239
0.006931725198593699
0.007081983333514912
0.007862572089710447
0.006954566505876448
0.0070819571525013785
0.0073767451732747085
0.006614740098089304