<?xml version="1.0" encoding="UTF-8"?>
<VTKFile type="UnstructuredGrid" version="0.1" byte_order="LittleEndian">
<UnstructuredGrid>
<Piece NumberOfPoints="6842" NumberOfCells="35296">
<PointData>
<DataArray type="Float64" Name="&#x4f4d;&#x79fb;&#x5927;&#x5c0f;" Format="ascii">
0.017723713275983315
0.01774175758928667
0.018587230255366915
0.01857515922906576
0.018554642283481623
0.018546765977754617
0.01792253789176157
0.018574720897148296
0.01795426125321223
0.017962781573505667
0.017563577824567637
0.018497251781716014
0.018528413081521374
0.01854696236013428
0.017636829906660073
0.017793479584625533
0.01846434024830443
0.018412347365191543
0.017097805878508707
0.018497685926015184
0
0
0
5.928268587308518E-4
5.296004865252904E-4
9.745582099278462E-4
0.001044619232697255
0
0.017356033448683663
0.017679546001190392
0.018353323295645572
0.01827052206845388
0.016837424782886547
0.01841129551290452
7.286549578370235E-4
0
0
3.888166580237479E-4
0
0
0.0011217274003716895
5.986579649320032E-4
0
0
0.0012153680603358536
9.005294070362133E-4
0.016901419101520872
0.018054809583650248
0.01818515581380414
0.016433641926798387
0.016927623955475483
0.018270558275956205
0
5.849560635054249E-4
0
4.3355155894201735E-4
0
2.984037725149867E-4
3.461409608106342E-4
3.937349308283828E-4
0
4.2527137816657056E-4
0.0012547663294542463
0
0
0
2.9577696262873815E-4
6.298138078791493E-4
0.0012668827801389987
0
5.167842329596572E-4
0.01640556369869559
0.016487341822525113
0.017712034056191487
0.016030668612212313
0.01644038179479675
0.017912136912870916
0.01805652775378877
0
0
4.729143711855999E-4
7.019413915654941E-4
0
4.945991276167026E-4
0
3.8469619244711235E-4
4.899400118000338E-4
2.9554191135352034E-4
0
0
7.118746042450143E-4
6.082006287003593E-4
0
0.0012855454449087777
5.600584623239592E-4
0
4.298153158534821E-4
0
0
0.0012716170374173013
0
5.690197152366409E-4
0.00124969479877677
7.649678976224655E-4
0
0.015306772564927127
0.01724833801146838
0.016452633634734853
0.017424494987188625
0.015700533874898365
0.017720671920644162
0.01605880486805517
0
0
3.598030884730105E-4
4.756888807803152E-4
0
6.057854478561023E-4
3.630424699002266E-4
0
3.8702281795323194E-4
0
4.1473146518415535E-4
4.2278893558096926E-4
0
0
0
4.1444520901942324E-4
0
6.03298788374498E-4
6.046338689882873E-4
4.4740884464238256E-4
0
4.669438580578697E-4
0
4.2620089482612976E-4
5.121200458547532E-4
0
3.434505675104331E-4
0.0012373343550272189
0
8.874348819230189E-4
0.01452330492323134
0.014876071072114357
0.016649488965584058
0.016852046794539357
0.015038037497683123
0.015150878901708792
0.01634324877773908
0.016953758845499288
0.014874830784982978
0.0172417608871105
0.015594543253012462
0.01389384617685685
0.014296899217850727
0
0
5.043207211057667E-4
0
5.458572484105611E-4
2.887323622653495E-4
5.547701727675532E-4
0
4.558665401681145E-4
5.175962918874728E-4
0
0
5.744655254311567E-4
0
0
5.367287261794435E-4
3.266731359292047E-4
0
3.3763695906467E-4
0
3.298640173754934E-4
0
3.29129413892088E-4
7.977541280674919E-4
0
4.770869886898961E-4
5.473009488254477E-4
0
0
0.0011054315086363939
0
9.811887812742883E-4
0
5.942546733052255E-4
0.015981338334645444
0.013775125909633474
0.015722537110366037
0.01420665116182431
0.014493345253769102
0.014393755553549685
0.01632235578513907
0.014476648866599046
0.01664286644310589
0
0
5.69277669021199E-4
6.49828096440517E-4
0
3.9607308793289305E-4
0
3.595693055619392E-4
3.454224363975237E-4
0
5.182667371763602E-4
3.9638846608317646E-4
0
4.353305608804614E-4
0
0
3.277121961747108E-4
4.3131617529180484E-4
0
3.623313011915143E-4
0
3.656336625956485E-4
5.184032157014748E-4
0
3.1501609109732824E-4
0
6.009366614599731E-4
0
5.48333936299132E-4
4.739246076843166E-4
0
0.013291923396172346
0.015322282160731827
0.013143606366629278
0.01503780756808351
0.013400575689585524
0.013034668167565565
0.015167652258438533
0.012646577643338873
0.013196719893805017
0.013971124436160479
0.015610239466528777
0.013690090171861869
0.014616244894183976
0.014977934531994579
0.014012837985389699
0.01599379013352176
0.013909501771527612
0
0
5.634266405497425E-4
6.389349131542163E-4
3.77327661055563E-4
0
3.593908284020311E-4
0
4.565858650361083E-4
6.214215326313801E-4
0
0
3.360155633331922E-4
3.9768473030710535E-4
0
4.0407237156687807E-4
0
5.340871039277856E-4
0
3.946063947890485E-4
0
4.454947416940986E-4
0
5.730481373198321E-4
5.066798062034303E-4
0
3.992254868109703E-4
0
6.619464796155176E-4
0.014615457633672582
0.012714536628197768
0.014325473666065937
0.012979534299846572
0.01392263124174256
0.012288605076781828
0.013452984007963171
0.01298177007215636
0.013547317750530632
0.015307916051543833
0.013154787288900648
0.01429565306031033
0.01461559402771873
0.013268046925476064
3.5557234542562985E-4
4.7824866229728344E-4
0
0
0
3.927683985459671E-4
0
4.781962728320854E-4
0
5.107141061657423E-4
5.84080144316032E-4
5.723540085900255E-4
0
3.974552534928096E-4
0
6.046868366026357E-4
4.0257522216815433E-4
3.960640766366735E-4
0
4.0616234357244394E-4
0
3.754362590757331E-4
5.249892974217575E-4
0
5.273866426579918E-4
0
5.19963206221999E-4
0
4.970703938248082E-4
0
5.69415702343593E-4
0.012632196522106955
0.012238717219950986
0.013877776126215493
0.011922738347373998
0.011566881385418256
0.01304935007615633
0.013516224519188677
0.012456007964444536
0.011925503432718844
0.012625571465855969
0.012069575655278846
0.010171483979090505
0.011606474620640034
0.010878731293973876
0.009289531141171556
0.01088063497993024
0.013083649136583905
0.013522304897677265
0.012361096612326558
0.012670031161177984
0.01275449344669221
0.012633965269050968
0.013875333527038321
0.012233311250929108
0
0
5.291930380192923E-4
5.275559701726695E-4
0
5.948527131642464E-4
4.673957173188776E-4
0
4.537371971743359E-4
0
4.877668437095563E-4
0
4.20638794774761E-4
6.474150087543569E-4
0
3.370691399344864E-4
3.9394582031672295E-4
0
0
4.569083701603643E-4
4.5838361740125716E-4
0
5.313824230013906E-4
3.167537524361259E-4
0
0
4.985986718591706E-4
5.376373296920318E-4
0
5.692496192836357E-4
0.010665071014719077
0.01069467883105987
0.00963722376291428
0.011340722191701187
0.01110271182727663
0.010543499260733162
0.011519078665965332
0.01213659169386805
0.010246157391783249
0.010879449913594049
0.008765507583925152
0.01260592658222708
0.011715376707228003
0.01304584791677432
0.011574062645539784
4.987817709323762E-4
0
0
3.8254074198824846E-4
0
5.14461932870105E-4
3.476514871816224E-4
0
5.169071909584146E-4
0
4.726943987940288E-4
5.062845570504292E-4
0
5.594115979491875E-4
4.7080382948926026E-4
0
4.123840786531663E-4
0
4.388009240587196E-4
5.856169779267973E-4
3.3278653510080975E-4
0
6.352803213953216E-4
0
6.430762834927516E-4
0
3.601197838675758E-4
0
0
6.682902877855839E-4
5.702909671442971E-4
0.010855512687187539
0.011614613820229396
0.010840824334598207
0.012072755500852676
0.010161334074129884
0.010877796082205645
0.008849073899747898
0.010880659287929044
0.009321732507875291
0.010183924340231786
0.010679857251224919
0
0
4.137438877680085E-4
0
3.5619363997043313E-4
0
4.921884150293041E-4
2.9800031189875854E-4
0
5.319102495318703E-4
0
5.528838682305015E-4
4.269641221309776E-4
0
5.115559429848744E-4
0
3.960548412631755E-4
4.971117468383357E-4
0
5.937703412475006E-4
0
5.873837555516939E-4
5.416443465857042E-4
0
6.069852933273267E-4
4.147344918917996E-4
0
5.010216367912415E-4
6.385965439857575E-4
6.543121336358254E-4
0
5.697446366033723E-4
0
0
4.0633092723490154E-4
4.1691096777508635E-4
0
0
3.436503772750277E-4
3.66682029315729E-4
1.7376626573722606E-4
0
0
2.7058481797733196E-4
1.2398246028626764E-4
0
0
1.252482128674216E-4
0
2.529594180040563E-4
2.8080662406432786E-4
0
4.5747349690597466E-4
0
0
3.016620797982118E-4
4.60590037849814E-4
3.636071429065776E-4
0
4.3435518472571995E-4
0
3.640632230193084E-4
0
4.7489666143287975E-4
4.917337386483226E-4
0
0
6.064231961441638E-4
5.53011777006368E-4
5.99613114394692E-4
0
0
6.509034627835475E-4
6.182412613085689E-4
0
0
1.0021483370613539E-4
5.5429655862977705E-5
0
0
5.068166690003294E-5
9.182319046792961E-5
0
3.4274433741900926E-4
2.0918724825763456E-4
0
1.0854018847182772E-4
0
2.002880290504156E-4
0
1.0477404172852273E-4
0
2.3716073947211214E-4
0
2.8400230846509596E-4
0
3.1099135218890054E-4
0
3.3465674794028367E-4
0
3.44235204963193E-4
0
5.875638496886626E-4
3.744970916312722E-4
0
4.4734275014920836E-4
4.6141615937543746E-4
4.7594167293889977E-4
0
3.9888036272931545E-4
0
3.5140238206425324E-4
0
5.825251349231385E-4
5.503887023016706E-4
0
1.1788893062102457E-4
0
1.5875812639215377E-4
0
0
2.3727583195510597E-4
1.2099132422331926E-4
9.094327254585344E-5
0
0
8.10241847818715E-5
4.371591249493048E-5
0
2.5176396871011886E-4
1.614234536381876E-4
0
1.3102206450399045E-4
1.32558409721163E-4
0
9.514031094865336E-5
8.532774476228523E-5
0
2.54295657957472E-4
0
1.943234113496265E-4
0
2.6798919010211547E-4
0
3.4418481553259375E-4
3.121406332080015E-4
2.8662977828857627E-4
3.164483405039013E-4
0
0
3.159952328292693E-4
0
5.182844368981396E-4
0
3.2273488055401293E-4
3.743673785005437E-4
3.438383869045596E-4
0
3.3493188153698843E-4
0
4.4365278266886245E-4
0
7.637430599803779E-5
0
1.4910734054842097E-4
1.8127433941998218E-4
0
0
2.3728989865264927E-5
6.064751202300822E-5
0
1.4799271446016684E-4
0
0
1.1572256874645309E-4
0
1.0864519870419082E-4
0
2.1939561102510307E-4
0
2.553646379133909E-4
3.426619112677863E-4
0
0
3.578200850815278E-4
3.4555233908555396E-4
0
2.7937157569090943E-4
0
2.7186414266648206E-4
0
4.0794048713336324E-4
0
3.2748029403117755E-4
4.990315496244382E-4
0
1.165149643139823E-4
7.866085003953827E-5
0
1.1131300523482082E-4
0
2.501921419095559E-4
2.756471444841724E-4
0
7.545269761666585E-5
3.2692663025426105E-5
0
5.7040975536511526E-5
0
2.1988709836237864E-4
2.407451943422885E-4
1.4116947757734997E-4
0
1.5329635060688112E-4
0
1.1148529722787105E-4
3.062726683273334E-4
0
2.440074834353664E-4
0
3.830600243014436E-4
0
0
2.520313715655178E-4
0
4.430831327346015E-4
2.3470667769814966E-4
3.88049107425881E-4
0
0
4.5824001562037576E-4
5.467686519723922E-4
0
6.268099191713705E-5
0
1.5717349739579047E-4
1.550785000281282E-4
0
2.752913877370023E-4
5.466744763456759E-5
0
5.9160931281871724E-5
3.976880988415919E-5
0
2.6571646385189667E-5
0
0
1.5725223583965998E-4
1.6247475685757937E-4
2.0594283012884327E-4
0
2.091196569064444E-4
1.7180309232829843E-4
0
0
2.2851801637564705E-4
0
2.8455587405853467E-4
0
3.37140204165097E-4
0
4.066590076235635E-4
0
5.9909296588332376E-5
8.998109972002596E-5
0
1.6860724632974724E-4
0
0
6.715719127677168E-5
0
3.7265680627806296E-5
0
0
1.9603732632246916E-4
1.7550459704389896E-4
0
0
2.2719223272365862E-4
2.1053198173739187E-4
0
2.466794078057263E-4
0
2.3629229711971076E-4
0
3.435143570270971E-4
0
8.764869452972461E-5
8.778963601286277E-5
1.6932837098774866E-4
0
1.6635919051093346E-4
0
2.750575214579171E-4
0
0
2.4191429618146033E-5
1.0812782282742854E-4
0
0
1.2282515540698564E-4
1.2094767636440903E-4
0
1.8741829371560304E-4
0
0
2.7341631864022007E-4
2.318725597736247E-4
8.653264739950363E-5
4.8134701932458024E-5
0
0
0
2.744808868190119E-4
2.74426974228221E-4
0
1.0560028318686746E-4
0
5.0433911432749494E-5
2.631903348517872E-5
0
0
1.325993785099224E-4
6.0785245677061216E-5
0
1.0660171979470362E-4
1.7079007650873995E-4
0
1.8807943241690349E-4
0
7.8736060758389E-5
0
1.6116871218212412E-4
1.5879896244807643E-4
0
2.1295403470502616E-4
7.498529271939091E-5
0
8.697832753540451E-5
0
3.685596698547042E-5
0
4.5128798175962484E-5
0
1.0066690751776417E-4
0
1.6602378844518404E-4
7.612983990345697E-5
0
1.596784490453455E-4
0
2.633769514123773E-4
2.6807471083275554E-4
0
0
6.11732799224369E-5
0
5.5603221942429275E-5
0
2.3263722251387617E-4
0
2.537705067912947E-4
1.38158600311206E-4
0
0
1.08261148564603E-4
1.0817094196081897E-4
5.9402352676416586E-5
0
1.5844601136069753E-4
0
2.3876333103376395E-4
0
0
0.008996358102215489
0.00899637295174635
0.009110491403496691
0.008999736269426795
0.0091129333940088
0.009179330817721225
0.00958648946408079
0.00959462354940192
0.009647830685744806
0.009511555994086702
0.009720544452665365
0.00971823521878984
0.009776336292127203
0.009856586401638211
0.009856957957921306
0.009901835159141777
0.009121341479923275
0.008991466007998482
0.008988173834988301
0.009117657847781542
0.008988181046705105
0.00906005570053318
0.008981633711832956
0.009130145285300508
0.008973209221366511
0.009982527740353447
0.009983977616562152
0.01002605591642239
0.009445345461915684
0.009266501862700085
0.00928273461308067
0.009355744280980871
0.009440886021221144
0.0092226036927117
0.009544261735067476
0.009507727721807064
0.009495710810292662
0.009668705367715049
0.009655186507671191
0.009709774226335706
0.0096130222946286
0.009594343301324583
0.009646017658302664
0.00967029047010351
0.009578402000519239
0.009755827909690477
0.009788967197847576
0.009701620764525814
0.009780572285299466
0.009819308878570068
0.009897143278500997
0.009957823480291431
0.009848692959603904
0.009913929308844709
0.009981072952303454
0.00984455567301769
0.009912881566374166
0.009156629004729432
0.009212083770500954
0.009116157599363125
0.008973161879670196
0.009041496883421688
0.009105169125293187
0.008962730341087645
0.009444814948590565
0.009365147540240728
0.009257375411375517
0.00911927641737328
0.008946426689561427
0.009481083747973965
0.00981445298798103
0.01001547163647992
0.009975228692042286
0.009944900168426987
0.010048910063037696
0.010009076111036578
0.010099012900699995
0.010099591621468987
0.010150736796712795
0.010047500189103258
0.01022311105480919
0.01022067619991483
0.010278905589548517
0.009362152076112736
0.009378411606179003
0.00928564371941474
0.009550872463267635
0.009565331380875034
0.00946212288644832
0.009533457350285655
0.00946741961469305
0.009647063462975
0.009697173425743248
0.009772642765215445
0.00974598916716658
0.009600172034637524
0.00954124928704845
0.009625006729663332
0.00972591079196389
0.0097952428658048
0.009966777014785135
0.00983485269236898
0.009905253031739251
0.009937362828747702
0.009866126248202042
0.00986827608696739
0.00921009951780253
0.009308223153820875
0.00924053303629302
0.009115363394298996
0.008946208887334578
0.009089598670082412
0.008926757154330264
0.009409020172176343
0.00920451895461513
0.009290540303988808
0.009120061899686978
0.008901308021580344
0.009558529462983347
0.009686618296402454
0.009793037808496167
0.01034775865301695
0.010346440842161724
0.010415473940418547
0.010487829739586604
0.010493232905205948
0.010564288727592443
0.010040726854563206
0.010098738404444882
0.01007439438974892
0.009996228999846134
0.010034220045688142
0.00991825210387338
0.010147327107083826
0.01015155125304326
0.01006812568016965
0.010254831362376942
0.010378962532280331
0.010255050669072601
0.009413377135638896
0.009385929890723966
0.009513732676692876
0.009512318081035743
0.009639919469448225
0.009750398657045016
0.009586249558041732
0.009698611320786298
0.009816601821630546
0.009982962068153254
0.009910494930544954
0.00986504199831771
0.009699843268703242
0.009349811872552035
0.009276415268301504
0.009110215104322628
0.008900649786420106
0.0092116818455712
0.009078053403999385
0.008848219016465557
0.009600860535862489
0.009453813227768974
0.009303242125734914
0.009302535504923411
0.00909133459823701
0.008827983039643916
0.009651082867544635
0.009809602855168062
0.010639850863336202
0.010647005081432877
0.010720592081128945
0.010798362977930092
0.010806020342956735
0.010884948634402234
0.010428187040232958
0.010388977649273417
0.01049822751473824
0.010464052799630918
0.010528829006911053
0.010981557145621434
0.010983305830976035
0.01106194936175014
0.010935213093104964
0.01055388125508726
0.010884735600816873
0.010748475004740602
0.010713173113234043
0.010792248256860048
0.010092502692316757
0.010139316042837519
0.01001772940899952
0.009961427070134372
0.010009677305112503
0.009878972039731636
0.010212530002376709
0.010144439776904273
0.010280091605871794
0.010330879666234437
0.010381132697551807
0.010273857668758298
0.009483446189767012
0.009456309905061272
0.009692798736696928
0.009620130464160105
0.009787533176013817
0.009900644818643747
0.009805923981601536
0.009679057380610454
0.009288857161248429
0.008826520154010002
0.009080565175423837
0.009439766288897766
0.009202243877301399
0.008980044972848907
0.008762701264890017
0.008740868858608032
0.009488141486331899
0.009375282763950507
0.00928537607628521
0.009019840520672524
0.00871240294158311
0.008951943053157023
0.009716564774412271
0.0111741256732933
0.01118443352649187
0.011255907647886906
0.011065751142110603
0.011375670119885686
0.011388917705182234
0.011468392669318388
0.011599916176281465
0.011615929733261554
0.011700752218523276
0.011854144055636397
0.011861302471428862
0.01195917411871302
0.012121841245893075
0.0110218241350199
0.010880169748243016
0.010965981404674445
0.01117241380850109
0.011150542479830019
0.011273491737215046
0.011068166849275278
0.010632909216622967
0.010677399803018545
0.010780249644558747
0.010528800408391263
0.010416927678849433
0.010402752959949422
0.01048464992247783
0.01056627157133701
0.010972604964465092
0.011075391149663898
0.010908991223624489
0.010923960360536278
0.010824213616920113
0.010157088122107501
0.010680141732818673
0.010574224158029905
0.010659557349324875
0.01078285317368932
0.010735177389196176
0.010818518148311444
0.009883437300184069
0.009775653087540666
0.01022947533284818
0.010405210317617724
0.010106545847650117
0.0100368347984868
0.010043127041636206
0.0099719011985255
0.01017889073049198
0.010306544663424845
0.010355504933093427
0.010182904295327571
0.010292113310475099
0.010445631486277673
0.012128866851294912
0.012266720063704706
0.012474109896109612
0.008892487924559975
0.008630337389275714
0.008536069437069712
0.008672796213994475
0.008436332181939706
0.00830469999283284
0.009943682573111609
0.00949301360266862
0.009629392123686568
0.009714911848744196
0.009886792257830863
0.009774855508283001
0.008823070711094335
0.008613575459440696
0.0087096906931482
0.009431337366173444
0.009016944397365138
0.009280622689628818
0.009141036260813272
0.008864027608166368
0.009497167742089056
0.009210624811332072
0.009079430703660492
0.009725512941155864
0.012476541110783309
0.012639897702899194
0.012898826447780534
0.012900858858610883
0.013095789758252438
0.013354696849592005
0.013367169116443731
0.013658489181447067
0.013955696072552985
0.013967174886678719
0.014312409791695157
0.014630523458031943
0.014630299951285229
0.015043686312235934
0.0153728233533757
0.015369210403080615
0.015823975717091536
0.01616248188536601
0.016141741143833224
0.016626726237987426
0.016940955115717405
0.011736300363064478
0.011722395237777626
0.01103399663668881
0.011117208140406747
0.01119397716027249
0.011206064608429394
0.011316308895097498
0.011321217166901161
0.011374560172050005
0.011269932427031145
0.011174603733700142
0.011425177482486002
0.011489335363072367
0.011563720049121755
0.011612362338992769
0.011366168169044816
0.011479449869499486
0.011831838853438288
0.01157990213538129
0.011783310788136162
0.011726259495975966
0.011954232283600688
0.011964861649679118
0.012079519151010338
0.011850868318682668
0.01197641815800402
0.012196104025665568
0.012276808946188935
0.012086992920129448
0.010997663246632332
0.010900163070855532
0.011100955339610889
0.010605037298928336
0.01049293282666791
0.01069354511813833
0.010476371230560312
0.010596176393799518
0.010986377226811181
0.011014473791134393
0.010845035084000303
0.010747533069041203
0.010896695444787332
0.010140829577914177
0.010687149780344345
0.010634141928887607
0.010783421734415025
0.009820301789717377
0.010007656185895403
0.01026994444464254
0.010353142869224495
0.010050843143122169
0.009914803898405626
0.010202993125688179
0.010117950216087194
0.01049646528452176
0.010407787288818712
0.01030979845656215
0.01017635886603536
0.010316600213060379
0.010407461126337695
0.010516468323640159
0.011713702795323423
0.012366907718663249
0.012280987119504738
0.012702049885413673
0.012462464448792548
0.009063708575414218
0.008817613095744638
0.008563289994944576
0.008689591443001812
0.008418368788009554
0.008029050712729928
0.008169023554070034
0.00852138953651068
0.008237710038546632
0.008700864875963001
0.008387681014765207
0.00853190245702372
0.01005472869402427
0.009780826197916665
0.009373913420062434
0.009540874003507968
0.009498773481408191
0.009725312010215705
0.00879439015768325
0.00887683218886351
0.009230007780627447
0.009225444745166707
0.008814534639750014
0.008920222711544776
0.009664864955691523
0.009453973413785456
0.009454842983138935
0.009186060217642587
0.009430671451367993
0.009568322860174257
0.007714390275124858
0.00787279879649261
0.008085027012848167
0.00768703432288945
0.007556399682167369
0.007946555158063584
0.012541553597197686
0.012878482624875563
0.013063244075318793
0.012696264406565292
0.012453187211867068
0.013654949477122232
0.013076114268180837
0.013670999475688736
0.017503323601519336
0.01696102218842863
0.017047061409593892
0.016495446972340625
0.01649905446437064
0.0157400211646535
0.014237197411324258
0.014251651975095373
0.014952443663693754
0.014949549789800618
0.015710189910318643
0.0172311953113063
0.009519378663946443
0.01229628316272406
0.011655119088058276
0.011556207219922128
0.01141912688699881
0.011155213819320392
0.011084532484029257
0.011276841913023465
0.011282906661393411
0.011258590821985227
0.011461471881926012
0.011919319087867338
0.01212657662019405
0.011844740322864563
0.011642875135819993
0.011787709719211404
0.012208741706741801
0.012036265985558351
0.011949284897529168
0.01212481371761863
0.01094661316354975
0.01112551018322412
0.010630658625106428
0.01045670990183261
0.010636422825930336
0.011045827056674834
0.010786354172862314
0.010588421946458761
0.010772812808976991
0.010949221729446125
0.010107974945462034
0.01018124392664307
0.010434008381653955
0.010646768661488474
0.01077729384475376
0.009964576931355905
0.009807030737174068
0.009744709254946454
0.009925353712852839
0.010262817286191685
0.010038827008252687
0.010145740029782602
0.01031605650944654
0.010389455077869874
0.010520883741094554
0.011669972331283196
0.011526897605081339
0.011776422361090723
0.01162590012602921
0.012018278600901978
0.012282783823274026
0.012275518574817866
0.012617829821986365
0.008783184528627225
0.00917882429145251
0.007892458771800547
0.008211007656727136
0.008325487557408851
0.008400968538640892
0.007961736022218056
0.007363143692692093
0.007711840223928194
0.008449948731214992
0.00825057218251965
0.008063980672120814
0.008796033100673697
0.008963083728109588
0.008646241951064195
0.007937112421664762
0.008265868917334765
0.00814911249364936
0.00839754355084041
0.006978628707017963
0.00717150285574862
0.007301891461650025
0.008683254024616921
0.008560114830130396
0.008446580714154663
0.008299923692891979
0.008865072517205306
0.008690868291090092
0.009887899166475199
0.009780602505090696
0.009657063647090122
0.00949110113186172
0.00920456129223324
0.009494946484285319
0.008902254128045257
0.00909375543655973
0.00919498563142931
0.009459501931640689
0.009264207234963765
0.009444818959182751
0.009074699856132008
0.007992310099257436
0.007623493248603843
0.007325383684507399
0.007864266409178726
0.007506070169477162
0.00738732336410203
0.007983026005382561
0.007616258274966714
0.006772591008142593
0.007097303641305122
0.007018217560634044
0.006928824306892151
0.013146369171224163
0.013353514534474965
0.012936939835967888
0.012780007199050593
0.012592865008226815
0.01292897198637316
0.013617910800559534
0.0138758619169375
0.013353931890408812
0.013871283351219277
0.01757753752102115
0.017284269161590562
0.017301883688485696
0.01683808278396918
0.016801319044908756
0.016120755646641047
0.016043934192653323
0.016459574456572777
0.01683349014124435
0.016174982142757064
0.014022501697793602
0.01568648822336542
0.01455788625193693
0.014516805074568394
0.015329346446823485
0.014948581073421207
0.014573485403693512
0.01532089723996288
0.01580487039635389
0.0096259961154001
0.011118552548780887
0.012312586653298934
0.011245071648720942
0.011382917557286891
0.011462937855216985
0.011430897920584786
0.011354207469388448
0.011559546000657268
0.011904965845353681
0.011765617674025166
0.012025070303798705
0.010903938885842294
0.01111980386271079
0.010627393208547461
0.010899234602320654
0.01076802474723009
0.010611483991002963
0.010859419434821023
0.009944109306179331
0.010046351538012076
0.010240259085292138
0.010347348391440638
0.010430341268533205
0.010597675935335714
0.010551547394541923
0.010635399398471022
0.010734000783681023
0.009759135500110504
0.009855048264176549
0.009900941850874452
0.009631293446369177
0.010090231990670932
0.010166644947989025
0.010268271095200713
0.01040834389600105
0.011609489279379605
0.011801173652584334
0.011594562212387331
0.012003151411382548
0.011917791501726276
0.011754046307489652
0.012227335051688163
0.012449001970406041
0.012588207396857301
0.00763735237266791
0.008825180073771793
0.009006337006721819
0.008206472408781725
0.008505971455657714
0.008745163605244992
0.007283007672080325
0.007281386212374911
0.007037537812757771
0.007429982048580252
0.007750514217954853
0.008223468442179768
0.007858885840020733
0.00802346220707042
0.008411902629015018
0.007772713452438044
0.007974661766597767
0.008242835726338445
0.007757260761030674
0.008122383006984292
0.008916551347217362
0.008783719207720917
0.009086934596891657
0.008523828543858367
0.008063183953021962
0.008260994183963031
0.008547666630634523
0.008412286821493923
0.008781584112834235
0.008720794184558983
0.009150198814323636
0.006563034655770939
0.0068586045206469595
0.006118230524519528
0.0063284192574383094
0.006384670993489604
0.0056454328855309035
0.005144789356536499
0.005383642682099677
0.0053490864581429475
0.005662965275597746
0.005869847757271393
0.007174485830480335
0.007186461859178385
0.008865939609563169
0.008798528350169501
0.009815372849798611
0.009880481984279583
0.009610629207523173
0.009540272224154493
0.009223510714952135
0.009247267175673066
0.009525053853766894
0.009425144655052045
0.009256238076370384
0.00906673790873652
0.009271786509090633
0.00957722753934572
0.009492637393469809
0.006489160917105095
0.0066657397583219195
0.006657199832300693
0.00681400720365506
0.006115814794215389
0.006041737279072548
0.006317824881298038
0.005881173108803572
0.0069607978463747475
0.006194974382017254
0.0065080821534348075
0.007060475164321431
0.007255181744037331
0.007189883009015936
0.007452316446965987
0.008100824850297356
0.007628980953535233
0.007766872457771041
0.007937107651586606
0.007419904091940754
0.007903518066199459
0.007518695796022545
0.007708339193939187
0.007527318334108191
0.007155595746059116
0.00735703270707151
0.007257461198705089
0.006852952024046928
0.006801122658546862
0.006782192941061721
0.006615970608665602
0.006858333518964043
0.006906021449667116
0.007195541778446888
0.006150867855905115
0.006446705865001054
0.00638070891537525
0.006168160788869634
0.0056236049178758525
0.005575582512016875
0.005973507908643471
0.00591516875684708
0.005725477349707848
0.004470885499189203
0.004819393438881742
0.004615896643919455
0.004787393986704504
0.004854345033209417
0.005155552252485167
0.0048689119991922524
0.0043250545362536535
0.004055949107169978
0.005263199852533793
0.005566845650724086
0.0050668076217290905
0.005237995977472724
0.004320099554255123
0.004014141947533117
0.0037488245184372332
0.0034255324413515038
0.00310018567950523
0.0036087260122663325
0.003151067132025328
0.013191634014769159
0.0129923739189306
0.013476914108168573
0.014109269871385034
0.012789580374257042
0.012559286781276326
0.012995023081849699
0.013615253206712714
0.013456589822030131
0.014097523704863058
0.0166281195343227
0.01717257173706799
0.01725573532369053
0.016275315208546744
0.01610846960705298
0.016769085044938157
0.015789569140733675
0.01446913690999026
0.015400794319112338
0.014808631156545292
0.014996153300477209
0.015996994368899016
0.015687448873767128
0.016136637747344782
0.002820441121987179
0.0028324670979527327
0.0034609992260265896
0.009559080750120984
0.009500262630057805
0.00915566359157233
0.009904273382551891
0.011149651637183707
0.011058752341621242
0.010949140345766382
0.012036512742999321
0.01247352764065998
0.012141169029771722
0.011649586186278607
0.011375394478003568
0.01137056527799379
0.011336806764396275
0.011570031452635384
0.01180718284521976
0.010930239616573637
0.01117331230795021
0.01069343091447955
0.010722886503773628
0.010625490312383691
0.010848828735073797
0.01045921894106469
0.01027130610384774
0.010129758578084076
0.009890454224902263
0.009977387218171966
0.01028768120522771
0.010376824274919651
0.010687708254831759
0.0104805344596956
0.009797647930673918
0.009843313380948616
0.010193703776883138
0.011632180900842786
0.012180354578500724
0.011892549680128902
0.01241464838393732
0.0032184689025600583
0.0029243524765507766
0.0035635339982486437
0.004194036198493624
0.007498143378795826
0.007306814827397821
0.007479467456829296
0.0070966878486951315
0.007036530197034821
0.008667530098066478
0.008261674545968496
0.008366762380653174
0.008874287934386384
0.008514128728550894
0.0072077546968431026
0.007610739897859119
0.007437240445143798
0.008022375015622732
0.007909173527356726
0.008078986722236588
0.008956477676851026
0.007687306757507144
0.00831387010355856
0.007971030116095405
0.0078271343587491
0.007633877735160406
0.008332346943949027
0.007969128205636215
0.007875946903112588
0.008781978541431153
0.008630497614895948
0.0085066942320057
0.008778135501894461
0.008496392864485041
0.00849710785559121
0.008236564747656603
0.008012341104276312
0.008203769979176769
0.008443268081131898
0.008689494257792743
0.009038324455944576
0.009891568541695763
0.0066787574966941645
0.006152858031729519
0.005013463019477304
0.005363465787112818
0.005597747902907201
0.00567681242194129
0.005800259656694979
0.006986721029273977
0.0067436361741750415
0.008838378097284225
0.008807172755663324
0.010025435032692091
0.009956686136504442
0.008940143784483356
0.00898292305904437
0.008972110374254688
0.00956779181829709
0.009211731865943979
0.009207707642347662
0.009163655274864289