% Model:              15-1.mph
% Version:            COMSOL 6.2.0.339
% Date:               Jun 18 2025, 11:51
% Table:              表格 17 - 点计算 4
% x 坐标 (m), 点: 9         x 坐标 (m), 点: 11          x 坐标 (m), 点: 19          x 坐标 (m), 点: 20          y 坐标 (m), 点: 9           y 坐标 (m), 点: 11          y 坐标 (m), 点: 19          y 坐标 (m), 点: 20          z 坐标 (m), 点: 9           z 坐标 (m), 点: 11          z 坐标 (m), 点: 19          z 坐标 (m), 点: 20          位移场，X 分量 (m), 点: 9       位移场，X 分量 (m), 点: 11      位移场，X 分量 (m), 点: 19      位移场，X 分量 (m), 点: 20      位移场，Y 分量 (m), 点: 9       位移场，Y 分量 (m), 点: 11      位移场，Y 分量 (m), 点: 19      位移场，Y 分量 (m), 点: 20      位移场，Z 分量 (m), 点: 9       位移场，Z 分量 (m), 点: 11      位移场，Z 分量 (m), 点: 19      位移场，Z 分量 (m), 点: 20
0.22881408703398956      0.2642285755654302       0.34123214142817887      0.3568831286296366       0.13210587474345215      0                        0                        0                        0.5491391529992132       0.5489979780710769       0.32620460290282877      0.19873326108165962      0.012307736087879568     0.014228575565430238     0.009349396621573863     0.006883128629636617     0.007105874743452137     0                        0                        0                        -8.608470007868244E-4    -0.0010020219289231587   0.0023471411183887533    -8.659494614163803E-4
