% Model:              15-1.mph
% Version:            COMSOL 6.2.0.339
% Date:               Jun 18 2025, 11:47
% Table:              表格 15 - 点计算16
% x 坐标 (m), 点: 2         x 坐标 (m), 点: 3           x 坐标 (m), 点: 4           x 坐标 (m), 点: 6           x 坐标 (m), 点: 7           x 坐标 (m), 点: 8           x 坐标 (m), 点: 9           x 坐标 (m), 点: 10          x 坐标 (m), 点: 11          x 坐标 (m), 点: 12          x 坐标 (m), 点: 13          x 坐标 (m), 点: 15          x 坐标 (m), 点: 17          x 坐标 (m), 点: 18          x 坐标 (m), 点: 19          x 坐标 (m), 点: 20          y 坐标 (m), 点: 2           y 坐标 (m), 点: 3           y 坐标 (m), 点: 4           y 坐标 (m), 点: 6           y 坐标 (m), 点: 7           y 坐标 (m), 点: 8           y 坐标 (m), 点: 9           y 坐标 (m), 点: 10          y 坐标 (m), 点: 11          y 坐标 (m), 点: 12          y 坐标 (m), 点: 13          y 坐标 (m), 点: 15          y 坐标 (m), 点: 17          y 坐标 (m), 点: 18          y 坐标 (m), 点: 19          y 坐标 (m), 点: 20          z 坐标 (m), 点: 2           z 坐标 (m), 点: 3           z 坐标 (m), 点: 4           z 坐标 (m), 点: 6           z 坐标 (m), 点: 7           z 坐标 (m), 点: 8           z 坐标 (m), 点: 9           z 坐标 (m), 点: 10          z 坐标 (m), 点: 11          z 坐标 (m), 点: 12          z 坐标 (m), 点: 13          z 坐标 (m), 点: 15          z 坐标 (m), 点: 17          z 坐标 (m), 点: 18          z 坐标 (m), 点: 19          z 坐标 (m), 点: 20          位移场，X 分量 (m), 点: 2       位移场，X 分量 (m), 点: 3       位移场，X 分量 (m), 点: 4       位移场，X 分量 (m), 点: 6       位移场，X 分量 (m), 点: 7       位移场，X 分量 (m), 点: 8       位移场，X 分量 (m), 点: 9       位移场，X 分量 (m), 点: 10      位移场，X 分量 (m), 点: 11      位移场，X 分量 (m), 点: 12      位移场，X 分量 (m), 点: 13      位移场，X 分量 (m), 点: 15      位移场，X 分量 (m), 点: 17      位移场，X 分量 (m), 点: 18      位移场，X 分量 (m), 点: 19      位移场，X 分量 (m), 点: 20      位移场，Y 分量 (m), 点: 2       位移场，Y 分量 (m), 点: 3       位移场，Y 分量 (m), 点: 4       位移场，Y 分量 (m), 点: 6       位移场，Y 分量 (m), 点: 7       位移场，Y 分量 (m), 点: 8       位移场，Y 分量 (m), 点: 9       位移场，Y 分量 (m), 点: 10      位移场，Y 分量 (m), 点: 11      位移场，Y 分量 (m), 点: 12      位移场，Y 分量 (m), 点: 13      位移场，Y 分量 (m), 点: 15      位移场，Y 分量 (m), 点: 17      位移场，Y 分量 (m), 点: 18      位移场，Y 分量 (m), 点: 19      位移场，Y 分量 (m), 点: 20      位移场，Z 分量 (m), 点: 2       位移场，Z 分量 (m), 点: 3       位移场，Z 分量 (m), 点: 4       位移场，Z 分量 (m), 点: 6       位移场，Z 分量 (m), 点: 7       位移场，Z 分量 (m), 点: 8       位移场，Z 分量 (m), 点: 9       位移场，Z 分量 (m), 点: 10      位移场，Z 分量 (m), 点: 11      位移场，Z 分量 (m), 点: 12      位移场，Z 分量 (m), 点: 13      位移场，Z 分量 (m), 点: 15      位移场，Z 分量 (m), 点: 17      位移场，Z 分量 (m), 点: 18      位移场，Z 分量 (m), 点: 19      位移场，Z 分量 (m), 点: 20
0.1863246436969937       0.20395791657975         0.20802554306668106      0.20759570983551467      0.2148495371429547       0.21511552872701356      0.22881408703398956      0.22932304565823214      0.2642285755654302       0.26481765914065536      0.27171552544848715      0.31374883076689186      0.3208188424831672       0.3286626577866087       0.34123214142817887      0.3568831286296366       0.10757458319512027      0.04452112664404924      0.046230130063954045     0                        0                        0                        0.13210587474345215      0.13239972214216497      0                        0                        0.1568750317606844       0                        0.044845508873260456     0.04443748912318809      0                        0                        0.49922137747574         0.14299514315329037      0.35918867045064357      0.10108354500588917      0.40201017617147994      0.4987920731234089       0.5491391529992132       0.5985152494469799       0.5489979780710769       0.5984506078970869       0.797394447849469        0.7974080607942783       0.29063512956304227      0.22746174454646886      0.32620460290282877      0.19873326108165962      0.013119562940105694     0.007998737157096016     0.012066363644027075     0.00759570983551466      0.014849537142954701     0.015115528727013546     0.012307736087879568     0.012816694712122153     0.014228575565430238     0.014817659140655363     0.011907904313155112     0.01374883076689188      0.008936097676561242     0.007721285383305714     0.009349396621573863     0.006883128629636617     0.007574583195120258     0.004521126644049234     0.006230130063954041     0                        0                        0                        0.007105874743452137     0.007399722142164975     0                        0                        0.006875031760684407     0                        0.004845508873260456     0.004437489123188088     0                        0                        -7.786225242599811E-4    0.0016144305504233577    0.003043723137736605     0.001083545005889168     0.0020101761714799316    -0.0012079268765910907   -8.608470007868244E-4    -0.0014847505530200871   -0.0010020219289231587   -0.001549392102913091    -0.0026055521505310266   -0.0025919392057217163   0.0014186839299793052    3.7442453408784794E-4    0.0023471411183887533    -8.659494614163803E-4
