% Model:              15-1.mph
% Version:            COMSOL 6.2.0.339
% Date:               Jun 18 2025, 11:51
% Table:              表格 18 - 点计算 2
% x 坐标 (m), 点: 19        x 坐标 (m), 点: 20          y 坐标 (m), 点: 19          y 坐标 (m), 点: 20          z 坐标 (m), 点: 19          z 坐标 (m), 点: 20          位移场，X 分量 (m), 点: 19      位移场，X 分量 (m), 点: 20      位移场，Y 分量 (m), 点: 19      位移场，Y 分量 (m), 点: 20      位移场，Z 分量 (m), 点: 19      位移场，Z 分量 (m), 点: 20
0.34123214142817887      0.3568831286296366       0                        0                        0.32620460290282877      0.19873326108165962      0.009349396621573863     0.006883128629636617     0                        0                        0.0023471411183887533    -8.659494614163803E-4
