% Model:              15.mph
% Version:            COMSOL 6.2.0.339
% Date:               May 9 2025, 15:41
% Table:              表格 2 - 点计算 10
% x 坐标 (m), 点: 1         x 坐标 (m), 点: 5           x 坐标 (m), 点: 6           x 坐标 (m), 点: 7           x 坐标 (m), 点: 9           x 坐标 (m), 点: 11          x 坐标 (m), 点: 14          x 坐标 (m), 点: 16          x 坐标 (m), 点: 19          x 坐标 (m), 点: 20          y 坐标 (m), 点: 1           y 坐标 (m), 点: 5           y 坐标 (m), 点: 6           y 坐标 (m), 点: 7           y 坐标 (m), 点: 9           y 坐标 (m), 点: 11          y 坐标 (m), 点: 14          y 坐标 (m), 点: 16          y 坐标 (m), 点: 19          y 坐标 (m), 点: 20          z 坐标 (m), 点: 1           z 坐标 (m), 点: 5           z 坐标 (m), 点: 6           z 坐标 (m), 点: 7           z 坐标 (m), 点: 9           z 坐标 (m), 点: 11          z 坐标 (m), 点: 14          z 坐标 (m), 点: 16          z 坐标 (m), 点: 19          z 坐标 (m), 点: 20          位移场，X 分量 (m), 点: 1       位移场，X 分量 (m), 点: 5       位移场，X 分量 (m), 点: 6       位移场，X 分量 (m), 点: 7       位移场，X 分量 (m), 点: 9       位移场，X 分量 (m), 点: 11      位移场，X 分量 (m), 点: 14      位移场，X 分量 (m), 点: 16      位移场，X 分量 (m), 点: 19      位移场，X 分量 (m), 点: 20      位移场，Y 分量 (m), 点: 1       位移场，Y 分量 (m), 点: 5       位移场，Y 分量 (m), 点: 6       位移场，Y 分量 (m), 点: 7       位移场，Y 分量 (m), 点: 9       位移场，Y 分量 (m), 点: 11      位移场，Y 分量 (m), 点: 14      位移场，Y 分量 (m), 点: 16      位移场，Y 分量 (m), 点: 19      位移场，Y 分量 (m), 点: 20      位移场，Z 分量 (m), 点: 1       位移场，Z 分量 (m), 点: 5       位移场，Z 分量 (m), 点: 6       位移场，Z 分量 (m), 点: 7       位移场，Z 分量 (m), 点: 9       位移场，Z 分量 (m), 点: 11      位移场，Z 分量 (m), 点: 14      位移场，Z 分量 (m), 点: 16      位移场，Z 分量 (m), 点: 19      位移场，Z 分量 (m), 点: 20
0.19020141262349535      0.21941092377909976      0.21730302339862922      0.21569054277221902      0.22845775162268         0.26380475334036124      0.2721944206494778       0.31430219525483416      0.3416585632312358       0.3596487483574439       0.10981283677842198      0                        0                        0                        0.13190014439781078      0                        0.15715152203389         0                        0                        0                        -0.014300934817003473    -0.013932243874432182    0.0843307709423399       0.3950244249640801       0.5448875447422198       0.5447755802059074       1.0023160110388416       1.002312426674481        0.31972695094434667      0.1889454761730028       0.016996331866607352     0.019410923779099747     0.01730302339862921      0.01569054277221902      0.011951400676570023     0.013804753340361225     0.012386799514145789     0.014302195254834152     0.009775818424630784     0.009648748357443962     0.009812836778421968     0                        0                        0                        0.006900144397810775     0                        0.0071515220338899945    0                        0                        0                        -0.014300934817003475    -0.013932243874432182    -0.0156692290576601      -0.004975575035919918    -0.005112455257780243    -0.005224419794092557    0.002316011038841514     0.002312426674480962     -0.004130510840093358    -0.010653734370073185
