% Model:              15.mph
% Version:            COMSOL 6.2.0.339
% Date:               May 8 2025, 13:41
% Table:              表格 1 - 点计算 1
% x 坐标 (m), 点: 1         x 坐标 (m), 点: 2           x 坐标 (m), 点: 3           x 坐标 (m), 点: 4           x 坐标 (m), 点: 5           x 坐标 (m), 点: 6           x 坐标 (m), 点: 7           x 坐标 (m), 点: 8           x 坐标 (m), 点: 9           x 坐标 (m), 点: 10          x 坐标 (m), 点: 11          x 坐标 (m), 点: 12          x 坐标 (m), 点: 13          x 坐标 (m), 点: 14          x 坐标 (m), 点: 15          x 坐标 (m), 点: 16          x 坐标 (m), 点: 17          x 坐标 (m), 点: 18          x 坐标 (m), 点: 19          x 坐标 (m), 点: 20          y 坐标 (m), 点: 1           y 坐标 (m), 点: 2           y 坐标 (m), 点: 3           y 坐标 (m), 点: 4           y 坐标 (m), 点: 5           y 坐标 (m), 点: 6           y 坐标 (m), 点: 7           y 坐标 (m), 点: 8           y 坐标 (m), 点: 9           y 坐标 (m), 点: 10          y 坐标 (m), 点: 11          y 坐标 (m), 点: 12          y 坐标 (m), 点: 13          y 坐标 (m), 点: 14          y 坐标 (m), 点: 15          y 坐标 (m), 点: 16          y 坐标 (m), 点: 17          y 坐标 (m), 点: 18          y 坐标 (m), 点: 19          y 坐标 (m), 点: 20          z 坐标 (m), 点: 1           z 坐标 (m), 点: 2           z 坐标 (m), 点: 3           z 坐标 (m), 点: 4           z 坐标 (m), 点: 5           z 坐标 (m), 点: 6           z 坐标 (m), 点: 7           z 坐标 (m), 点: 8           z 坐标 (m), 点: 9           z 坐标 (m), 点: 10          z 坐标 (m), 点: 11          z 坐标 (m), 点: 12          z 坐标 (m), 点: 13          z 坐标 (m), 点: 14          z 坐标 (m), 点: 15          z 坐标 (m), 点: 16          z 坐标 (m), 点: 17          z 坐标 (m), 点: 18          z 坐标 (m), 点: 19          z 坐标 (m), 点: 20          位移场，X 分量 (m), 点: 1       位移场，X 分量 (m), 点: 2       位移场，X 分量 (m), 点: 3       位移场，X 分量 (m), 点: 4       位移场，X 分量 (m), 点: 5       位移场，X 分量 (m), 点: 6       位移场，X 分量 (m), 点: 7       位移场，X 分量 (m), 点: 8       位移场，X 分量 (m), 点: 9       位移场，X 分量 (m), 点: 10      位移场，X 分量 (m), 点: 11      位移场，X 分量 (m), 点: 12      位移场，X 分量 (m), 点: 13      位移场，X 分量 (m), 点: 14      位移场，X 分量 (m), 点: 15      位移场，X 分量 (m), 点: 16      位移场，X 分量 (m), 点: 17      位移场，X 分量 (m), 点: 18      位移场，X 分量 (m), 点: 19      位移场，X 分量 (m), 点: 20      位移场，Y 分量 (m), 点: 1       位移场，Y 分量 (m), 点: 2       位移场，Y 分量 (m), 点: 3       位移场，Y 分量 (m), 点: 4       位移场，Y 分量 (m), 点: 5       位移场，Y 分量 (m), 点: 6       位移场，Y 分量 (m), 点: 7       位移场，Y 分量 (m), 点: 8       位移场，Y 分量 (m), 点: 9       位移场，Y 分量 (m), 点: 10      位移场，Y 分量 (m), 点: 11      位移场，Y 分量 (m), 点: 12      位移场，Y 分量 (m), 点: 13      位移场，Y 分量 (m), 点: 14      位移场，Y 分量 (m), 点: 15      位移场，Y 分量 (m), 点: 16      位移场，Y 分量 (m), 点: 17      位移场，Y 分量 (m), 点: 18      位移场，Y 分量 (m), 点: 19      位移场，Y 分量 (m), 点: 20      位移场，Z 分量 (m), 点: 1       位移场，Z 分量 (m), 点: 2       位移场，Z 分量 (m), 点: 3       位移场，Z 分量 (m), 点: 4       位移场，Z 分量 (m), 点: 5       位移场，Z 分量 (m), 点: 6       位移场，Z 分量 (m), 点: 7       位移场，Z 分量 (m), 点: 8       位移场，Z 分量 (m), 点: 9       位移场，Z 分量 (m), 点: 10      位移场，Z 分量 (m), 点: 11      位移场，Z 分量 (m), 点: 12      位移场，Z 分量 (m), 点: 13      位移场，Z 分量 (m), 点: 14      位移场，Z 分量 (m), 点: 15      位移场，Z 分量 (m), 点: 16      位移场，Z 分量 (m), 点: 17      位移场，Z 分量 (m), 点: 18      位移场，Z 分量 (m), 点: 19      位移场，Z 分量 (m), 点: 20
0.19020141262349535      0.18614413579453992      0.2104935026896775       0.20951412756803686      0.21941092377909976      0.21730302339862922      0.21569054277221902      0.21490511202228071      0.22845775162268         0.22894682264296456      0.26380475334036124      0.26436252295039653      0.27165814672228594      0.2721944206494778       0.3136866124137224       0.31430219525483416      0.3218684827313755       0.3308390193972594       0.3416585632312358       0.3596487483574439       0.10981283677842198      0.10747036690904772      0.0482928426775726       0.047416912899989644     0                        0                        0                        0                        0.13190014439781078      0.13218250968302492      0                        0                        0.15684190413766638      0.15715152203389         0                        0                        0.045965240149019926     0.04589227847411855      0                        0                        -0.014300934817003473    0.49240854143858165      0.1275521812739701       0.3505260258892209       -0.013932243874432182    0.0843307709423399       0.3950244249640801       0.4921188721238753       0.5448875447422198       0.5953257168382398       0.5447755802059074       0.5952692040608987       0.798633623742653        1.0023160110388416       0.798613009039374        1.002312426674481        0.28250123108714303      0.21799259374112867      0.31972695094434667      0.1889454761730028       0.016996331866607352     0.012939055037651926     0.014534323267023537     0.013554948145382884     0.019410923779099747     0.01730302339862921      0.01569054277221902      0.014905112022280715     0.011951400676570023     0.012440471696854583     0.013804753340361225     0.014362522950396516     0.011850525586953911     0.012386799514145789     0.013686612413722446     0.014302195254834152     0.00998573792476954      0.00989764699395641      0.009775818424630784     0.009648748357443962     0.009812836778421968     0.007470366909047721     0.008292842677572597     0.007416912899989642     0                        0                        0                        0                        0.006900144397810775     0.007182509683024912     0                        0                        0.006841904137666386     0.0071515220338899945    0                        0                        0.0059652401490199215    0.005892278474118549     0                        0                        -0.014300934817003475    -0.007591458561418339    -0.013828531328896918    -0.005618921423686069    -0.013932243874432182    -0.0156692290576601      -0.004975575035919918    -0.00788112787612471     -0.005112455257780243    -0.004674283161760235    -0.005224419794092557    -0.004730795939101266    -0.0013663762573470782   0.002316011038841514     -0.0013869909606260096   0.002312426674480962     -0.0067152145459199375   -0.009094726271252355    -0.004130510840093358    -0.010653734370073185
