% Model:              15.mph
% Version:            COMSOL 6.2.0.339
% Date:               May 9 2025, 15:50
% Table:              表格 4 - 点计算 2
% x 坐标 (m), 点: 19        x 坐标 (m), 点: 20          y 坐标 (m), 点: 19          y 坐标 (m), 点: 20          z 坐标 (m), 点: 19          z 坐标 (m), 点: 20          位移场，X 分量 (m), 点: 19      位移场，X 分量 (m), 点: 20      位移场，Y 分量 (m), 点: 19      位移场，Y 分量 (m), 点: 20      位移场，Z 分量 (m), 点: 19      位移场，Z 分量 (m), 点: 20
0.3416585632312358       0.3596487483574439       0                        0                        0.31972695094434667      0.1889454761730028       0.009775818424630784     0.009648748357443962     0                        0                        -0.004130510840093358    -0.010653734370073185
