<?xml version="1.0" encoding="UTF-8"?>
<VTKFile type="UnstructuredGrid" version="0.1" byte_order="LittleEndian">
<UnstructuredGrid>
<Piece NumberOfPoints="4598" NumberOfCells="23887">
<PointData>
<DataArray type="Float64" Name="&#x4f4d;&#x79fb;&#x573a;&#xff0c;X_&#x5206;&#x91cf;" Format="ascii">
-0.005153994550045004
0
0
0
-0.006035654564246692
-0.003454942236113553
0
-0.010384355758081465
0
0
-0.005077532617380861
-0.006124754409606876
0
-0.012829157572521488
-0.008870943292913202
-0.016713551601078017
-0.006578321349085638
0
0
0
0
0
-0.002655117248361147
0
-0.004041937671675424
0
0
0
-0.007254445834218813
0
-0.009298292845266074
-0.012633973014984505
-0.0089454384722194
-0.010848377444534294
-0.00979350574923593
-0.013228038137342966
-0.014209933340727628
-0.022692869727639228
-0.021844424251348547
-0.0063677938292123586
-0.0038671832755624988
-0.0024711495920776293
0
-0.003534146238431094
0
0.0037442022597597973
0
0
0
0
-0.006838109682424199
-0.018364007549332057
-0.023787397322173984
-0.016441800712765943
-0.029750603863960192
-0.018022654472117046
-0.009254325998501605
-0.009284366042857126
0
-0.0018680220385961998
-0.0018677965884062236
-0.0033222285327482
-0.008152032345473405
0
0
0
-5.935645666638895E-4
0
-7.768705514961476E-4
0
0
-0.0021407618268422736
3.189052271191951E-5
6.013353021788527E-4
0
0
0.0038002685815224637
2.0490272497163903E-4
0.00222160850803555
0
0
0
0
0.00428350784221694
0
0.0032230603126497375
0
-0.0066553384750640794
-0.004883797438873576
-0.012642232232605856
0
-0.012590965524389744
0
-0.009487337879129046
0
0
-0.010545720216442456
0
-0.011325422376175254
-0.01597347061351195
-0.0028672538590822486
-0.006409868253945499
-0.006534046999516625
-0.011708918085603837
-0.0060427027683365745
0
-0.007201232741341017
-0.004328845150027517
-0.0017364102141240114
-0.014763961819492593
-0.014706333895415815
-0.018036714049271933
-0.009895824268080979
-0.006403135043379791
-0.010931714898661477
-0.023385816557685082
-0.013776351909756419
-0.011297279681604384
0
0
0
-0.008853515958995088
-0.016729652257503478
-0.004369499995224079
0
-0.00616296133546371
-0.004407353645111735
-0.0013171787124497086
0
-0.00401968323466466
-0.011216023934256476
-0.0184731557099928
-0.01673626750534973
-0.023313342279511852
-0.030676139141985113
-0.028815867073157655
-0.02624160066018739
-0.02929409355241884
-0.028553320713496762
-0.03559058433926466
-0.03568322577092491
-0.017106873732517906
-0.005262942874330596
-0.009753004587778771
-0.0038157873418311746
0.00196406251077387
0.0035203550691481618
-0.0014698216453499261
-0.002996441755558355
0.006362035354153234
0.00813719513515505
0.010291785976920664
0
0.008315238207728132
0.007786657061194189
0
0.005856710286193529
0.012125219170675319
0.017071191751692465
0.017364014636286753
0.0036816355205222602
-0.006785004493081588
-0.01748627848016671
-0.0056510786203490156
-0.02848558652762836
-0.04295679632906238
-0.027278703999755013
-0.013637897381981328
-0.009143054746182697
-5.329942506867246E-4
-0.0024353754656980258
-8.914322869247583E-5
0
0.0022996753677674915
0
0
0
-0.0010111103381304461
0.0017785528446743006
-0.0024376664259504843
-8.10330060932323E-4
0
-0.004063082002800738
-0.0013252890883121854
0.0015574946386923702
-8.554970290533205E-5
0
9.081960296299343E-4
5.334660709876155E-4
5.311367501777849E-4
0.0010445161378746157
0.0013203969304432578
0.00775484795734216
0.008507558952731212
0.004893151897369206
0.0026648613203713364
0.0017917123986889787
0.008091912977446018
0.011247977747833766
-0.004545793244557169
0.004435335658788147
0.0031127838409243376
-2.6676446631666444E-4
0.006142455138049453
0
0.007994380929086543
0.008836990529643679
0
0
0.0071582492337223325
0
0.0023370897147816025
0
0.003543201334110172
0
0.008783920167754096
0
-0.009985436181956799
7.056532783017037E-4
0
5.778084300579122E-4
-0.002351545723533264
-0.009350085539152954
-0.012426041201887596
-0.015900529959789626
-0.02387589913268601
-0.022166838306511952
-0.02158780349913538
-0.02013719534350568
-0.021568746081045868
-0.012610266981248711
-0.02278472660615415
-0.005897988826364162
-0.008647863631450451
-0.014047295489887921
-0.010380732266210311
-0.007037478846815489
-0.008610541208459008
0.0027780713931638214
-6.811648013905784E-4
3.3651843421704466E-5
0
0.002164479319525445
0.0018881156135663927
0
0.0013815938084770299
0
-0.005136014232352612
-0.009400869804161818
-0.012315256128194842
-0.00607151563502553
-0.021590834618046017
-0.03474624740412035
-0.02111547652851907
-0.02430155802786542
-0.025587968737820217
-0.01845528628833877
-0.004744082317257244
0
-0.006486998623630271
-0.02975451580306627
-0.017035091990238838
0
-0.0013931650891188876
-0.0034476944347578537
-0.010732985670458267
-0.003929178155943723
-0.0029658722950968316
-6.997291529071616E-4
-0.006725886884621455
-0.02182546691832669
-0.017534316013994303
-0.015893064125323212
-0.03594105771067381
-0.039857647686308145
-0.0378407565126007
-0.045944606045695675
-0.02953819908035316
-0.03961985083445862
-0.04284691762557225
-0.04469693199036296
-0.05105764297660816
-0.04976853768012246
-0.021833288484726675
-0.010711818129696508
-0.037318281730044776
-0.046609608902156936
-0.05640525880091984
-0.004232824019733617
2.7734436586879275E-5
0.006035901319426811
5.245502765406739E-4
0.0011752459542783958
0.012189640477454251
0.014741447540541922
0.014301421436888782
0.014652355998107143
0.018683256840778654
0.01206635930448067
0.0164997557946705
0.020782826903748434
0.016765667127166192
0.023375046149636394
0.03104473299957345
0.010986483055295067
-0.020211984644313622
-0.0021479187152244404
-0.005660962590783632
-0.035183206462159895
-0.028096082925458243
-0.04078762438309601
-0.01902362958498769
-0.006219943616837032
-0.012873553634334728
-0.014316444035950789
-0.0023866744948430186
1.1893847122509087E-4
0.006002997320998219
9.654134508522473E-4
0.004967724682316362
0.00390176959773492
0.0046144636958224084
0.005383594041994123
0.00841135804550057
0.012535530115701042
0.005606463860549578
-4.50479548334519E-4
0.003661440603961018
-9.731712882715882E-4
0.0023179076114931006
8.110329318740083E-4
-0.0021224454510414296
0.0066320222336673715
0.007248198626453076
0.004649291158305812
0.011364276563688686
0.018907701650864694
0.01657899813702494
0.01494173695472123
-3.909849177753099E-4
0.00992349064609324
0.005271926246184302
0.006185071696089989
0.012606048202081353
0.018011429470056947
0.014608564063757263
0.013542216040197027
0.013422716767747402
0.01835346464968988
0.021839683101086818
0.02378292727566994
0.0062941672429109
0.013231184609561355
0.0025010201908980327
0
0
0.003634100572850477
0.008739824131932026
0.012753001212359704
0.015242060871940407
0.005544499129966486
0
0.013613810305629916
0
0.013848837647219949
0.006942337539481313
-0.024444729001687496
-0.02450671295034197
-0.01446466256867157
0.02326270214956091
0.023765670207672493
0.022034692865571456
0.005490412211375593
0.005149068889180126
0.010172175878996706
0.003575723642193346
-0.002541083715812959
-0.00320536079260767
0.001133826240115927
-0.01924178842519813
-0.01971456103511087
-0.011938041816298152
-0.016783435599502128
-0.023958120628366556
-0.03653382753333677
-0.032963083125495965
-0.03680088362466622
-0.02618935744033146
-0.019684032830484317
-0.03043461434832056
-0.039379279189035526
-0.03192476279261612
-0.036122807924994255
-0.02757527382207991
-0.04295042888503619
-0.004975208296786603
-0.009819359589339431
-0.014417004816134832
-0.005250182324587332
-0.010518775257895878
-0.0060903262208435015
0.0017907886922570516
0.005146695256320873
-0.0023536650152383484
-2.0365087082320686E-4
0.0026261300915306133
0.006526866152062593
0.0014032617072525092
3.3728607209434E-4
0.0035763832414117116
0
0
0.004651175787393298
0.003918582819472763
-0.03676111240361558
-0.011050017982010057
-0.00608974949261595
-0.012792690600512113
-0.033489887841868154
-0.026738527851443292
-0.022287460490743555
-0.03608635622481326
-0.009193609850984674
-0.017063607398407336
-0.0026913581979727836
-0.003849892696972417
-0.00877039373012817
-0.01759265199978939
-0.007661348776113544
-0.0033638844790390633
-0.015699986590588636
-0.02957255917108582
-0.021021198347709383
-0.0166109756261981
-0.03774844358607552
-0.04833687160314308
-0.049413933933039486
-0.048952348138879755
-0.059601743019853465
-0.04228187605341927
-0.05006064832030285
-0.05725934909105267
-0.06543930685622733
-0.06370999809651212
-0.04176149067836555
-0.029015211148034344
-0.04818360981699422
-0.0465073411837269
-0.06999231664076232
0.005272286897633204
0.0054284056312361995
0.0239648341521107
0.029669503045915136
0.030015526713239
0.025724464969559113
0.02290805687587694
0.02853039711077232
0.023428107427476235
0.03718867383864143
0.03705651938915777
0.044280597965190245
0.024750578732285103
0.031191978903149578
0.015673870898787225
0.017203578369873514
-0.027582159946954038
-0.015247193828359542
-0.032583818141205735
7.933007271050593E-4
0.0028598658762209873
-0.007121481529232032
2.8926950477797553E-4
-0.008108654701694565
-0.007334993880044247
-0.003667289872895432
-0.030070902155478554
-0.0191051354071559
-0.008621246287741129
-0.0075884117383685085
-0.018705850282637045
0.004918603322692298
-0.02794360482414697
-0.05597013295287387
0.0048954337647811865
-2.476730397032196E-4
0.005203884209415533
0.009874929723792588
0.015207756520907221
0.01038240272823551
0.009480784120447693
0.01741334399283129
0.008712199536471453
0.0023204458151752866
0.005023368750099124
0.0037863000718075155
0.01422000081187452
0.011519036810909771
0.02235711887901742
0.01984025937514333
0.012223545091311551
0.019471617213794187
0.022277485109074287
0.004958333125069834
0.015747312925346372
0.015170804955385272
0.010300533140055792
0.019789299690294266
0.025773786707161385
0.02464971419641867
0.023509856106724226
0.02543174843600499
0.036500613131118416
0.03343351753288951
0.02530598107878376
0.014877187530616719
0.026561301935931283
0.017510274274583664
0.005082170402612425
0.013320091758847692
0.00783368128581392
0
0
0.005586974787391869
0
0.010330818899898153
0
0.024445419901627623
0.011819850926762406
0.010543739129061137
0.017780878235448667
0.01217339682472742
-0.053417970622221804
-0.04424912385532175
-0.018504270154498455
-0.0065368611818026785
-0.025215026470484053
-0.01380881043150744
-0.03810098762386293
0.031139628938318373
0.030921802258324298
0.00848919236589263
0.012348481942225674
0.011091111688576938
0.009897226221015744
0.008315930395134634
8.868317191467847E-4
-0.0053474605103945826
-0.02568868043615923
-0.020167139304387197
-0.04376601570659499
-0.0374526480526626
-0.05001522443697377
-0.037883160426094825
-0.02604103583517444
-0.029634775339393522
-0.0211710305466603
-0.04456912433105998
-0.05668218441340155
-0.021468398229518078
-0.0370863798992005
-0.04553725535224519
-0.05639865497876483
8.745349389933211E-4
-0.008453656735150299
-0.014052930683186754
-0.007119069883591426
0.007479568879640777
-0.005821240306275175
0.003324333379156803
-0.0021917800985167945
0.0028767517901973684
0.004664266961592399
0.011760004291687888
0.00726127412589307
0.01007579191741665
0.0038163892001602793
0.008564586036906645
-0.03430509791019632
-0.011828800887274277
-0.00810185630333292
-0.017324700067447466
-0.05294044389295704
-0.04235151673740008
-0.03536291242011377
-0.022186885619413635
-0.03107811056998621
-0.03185898662524104
-0.004515842553025884
0.002212879561282278
-0.008865515799176422
0.0015091667054180013
-0.0031186833266260826
-0.010803374870065736
-0.014972832164109998
-0.023257398766617553
-0.01290696051228938
-0.044414026282389094
-0.05466739501498904
-0.05603258725666606
-0.06196191381520641
-0.07148595557880709
-0.0637059598933545
-0.07365940683587144
-0.06985047525061397
-0.054623465222120915
-0.06047534925360311
-0.0711934494331815
-0.06293897545640278
-0.078960815182349
-0.07758138284754636
-0.03714342589500353
-0.03597456179277259
-0.05696385444863682
-0.08368672116475649
-0.07165023001648835
0.008950498952125683
0.014561895214966264
0.029470887124928544
0.01803465562461065
0.024731378248643913
0.04047165258357731
0.04024788937493732
0.036847570817908584
0.04395980701922601
0.038154253972535725
0.035144624555994215
0.030256636551915617
0.05020083321486258
0.04660314006108824
0.056993505456102385
0.030293432355461152
0.04047222714338682
0.01998885060601622
-0.01752719601153969
-0.00552720910890445
0.003043423083034351
-0.0023371999356408264
0.002482798857341157
-4.6033033056677556E-4
0.008748095849179589
0.005014663178727688
-0.015903836993686263
-0.010192252357243865
-0.02141653389194576
-0.0026238756656033852
-0.0062332678569263986
-0.02312391501259494
-0.02901762211118492
0.007334972968806309
-0.03872269303940731
0.022352489611398237
0.017351677750970632
-0.04885076306410264
-0.053616457093917776
-0.06306452804691197
-0.06656203003620263
0.015809593262903036
0.020078320844239564
0.009209648628645819
0.012320203912535905
0.015944114609587442
0.01604595229393215
0.008571025124554314
0.015500243657945797
0.02316503694945819
0.010228075780822195
0.020877531436730476
0.028149420826169037
0.021374321332180306
0.021416123320000865
0.012054793881621246
0.002165890617116107
0.0295993754277577
0.03420542105937895
0.031164881884511907
0.03663824300516594
0.03717838751602391
0.036602559044187966
0.04061924083785548
0.05086517604758555
0.04621823171610917
0.024960482563058082
0.03110730459530139
0.022141518281568864
0.015549025664192929
0.01959311185473322
0.01938169983171662
0.023175669715890745
0.02308488224303155
-0.024063162341419024
-0.04468649877559534
-0.01813389696155487
-0.010484534016338247
-0.023000162191214254
-2.2821834681090492E-4
0.0010325191532482918
-0.004896151838153619
-0.034166227582481556
0.03400131905302681
0.014481158115892418
0.027853074544727175
0.017401425059972168
0.017210188737629115
0.004783254198316811
0.00950850828141906
-0.011695451612422452
-0.0035951186508634794
-0.02590492611771129
-0.014330429087889403
-0.024966009617610033
-0.032142421633838764
-0.044138731947982596
-0.04066358659197248
-0.028963193023545743
-0.0177107773319593
-0.025302408913343392
-0.055864672147273024
-0.04679368417982652
-0.04094324822159382
-0.05772840165061071
-0.06921329948238056
-0.0566625973054733
-0.06998656792782908
-0.04791242454751547
-0.03631346377523382
-0.03739554829788072
-0.028318124187008673
-0.04650114810815727
0.011023504557842236
-0.012427682889988245
0.013754463500360066
0.018577188073657495
0.003057079679565131
-0.003545632368827189
0.009025171107893198
-0.0014547739034041088
0.014914370948553525
0.01748118515576382
0.006879616320539998
0.010896441105017462
-0.017610582821273316
-0.033496926837773874
-0.018910729549716943
-0.04404373346214772
-0.03138322435418147
-0.0356371006164709
-0.030809615256143796
-0.0046417040902715775
-0.015461721741025784
0.0034708574805413224
-0.006048602630653541
0.005971408474274562
-0.0026245496049639287
-0.017952584034968484
-0.011671004997575722
-0.022250155547521574
-0.007676636332863028
-0.064833327089429
-0.04334903733570394
-0.05073272080539567
-0.06395905226806507
-0.05799295015030161
-0.08289012993359288
-0.07545365535175995
-0.07758041270487004
-0.07232015773720851
-0.08741142550645598
-0.07831906195578602
-0.0849375725404255
-0.07479931148771281
-0.09267185058479596
-0.0914454612666928
-0.04391384044793567
-0.06769767008194393
-0.09747013115034266
-0.0801906815196754
-0.056607562022076494
-0.07705134058756308
0.01762224957116869
0.026639173394885304
0.04366836290896826
0.04661389592675072
0.042233563384929534
0.03332741624857557
0.027955842817627592
0.04022819209192454
0.057061207944899196
0.047406983374180214
0.03383451321884533
0.03627413908608652
0.05398598409739464
0.06269995769054683
0.045237674084374846
0.05360715091856715
0.06890257653056896
0.02346382600016744
0.027529534306118635
-0.009643959715445856
0.001756923291411937
0.0082457307335989
0.010708147622160323
0.009769954114800304
0.0074582668881449385
-0.0013633637004306606
0.01494845663313893
-0.02499718689534058
0.013341413467411373
-0.006199568736515921
-0.016313950404659824
0.0026589344788817883
-0.00792485920690639
-0.0377463802796738
-0.0278304751638539
0.007695241409302695
-0.05450846555023115
-0.04005970441741669
-0.04354212753833506
0.03260788367600091
0.031043934621025244
-0.07906675693382283
-0.06086595407714952
-0.06038841813056589
0.04214550608081002
0.057987829302109745
0.03092898336912974
0.017865349014976935
0.020474830486224668
0.01969930329529805
0.013586897856838328
0.022882543321616874
0.03357547976905439
0.021711908124131336
0.014702231152064425
0.00463759585534991
0.015749425163222953
0.03875003932733839
0.03155898397107492
0.03900626345172578
0.03942832187248499
0.04449347525497616
0.04831982708966012
0.049670505716632896
0.04822318403083315
0.04979014825436078
0.0636899409849775
0.05291853247696151
0.05830229833404241
0.03338226149405133
0.020794194301921306
0.03627399707048174
0.04296686701689944
0.029797470436317454
0.02917713890493673
0.030798939231578934
-0.01833344741472008
0.005973128306342647
-0.004786636648139345
-0.04147211119764216
-0.016822856361074865
-0.023784986359628887
-0.007380607467504825
0.027727611005421884
0.04006028965657227
0.017493066624910066
0.0267057527058835
0.025456942524671296
0.02412410743493092
0.024531640566019086
-0.009835792193123395
-0.0036072604303193606
0.006537992751028639
-0.0030097620074606003
9.623395367703626E-4
-0.0177755126845025
-0.013980582932477965
-0.026828055981142417
-0.024503934802642454
-0.018427238851451894
-0.040054306663723095
-0.04901155540147332
-0.03207514551819438
-0.07017658124460537
-0.0535638731566126
-0.06497031050624204
-0.08391895233775283
-0.06420432125613229
-0.04259619137764934
-0.08368164163221142
-0.05695663036829416
-0.03560488338423762
-0.0740342501755194
-0.057850174782917305
0.020192629376027022
0.004697961294323104
-0.009547355339287059
0.015501232909249653
0.019066766446739877
0.00426728253292337
-1.7846702815490844E-4
0.010787725165885269
0.016068411021075847
-0.029779054647601895
-0.030215137302672897
-0.030139010854091666
-0.03741201546358383
-0.006350266648545045
-0.018804706308568994
-0.04245101432098672
-0.033051085925796565
-0.018368644689044186
-0.025764049467537863
-0.00989408545308726
0.004937666725718914
-0.015170302466707154
-0.006132273589685119
-0.057778870140112716
-0.049314271177705864
-0.057529011560458296
-0.046995957897480074
-0.06354061936369494
-0.07559015268028661
-0.09639966709676055
-0.09012665128352713
-0.09144259401427934
-0.08005407961248044
-0.0785876899545021
-0.08778114765616565
-0.10139436751306168
-0.040404909865889176
-0.06502310379735345
-0.08455591246776424
-0.09876210355974017
-0.10680142172032257
-0.10534301880478214
-0.0518128912314938
-0.07870465948633423
-0.11135828734101941
-0.09045323383390097
-0.08427375240437335
-0.06289531500539376
0.028489443826490688
0.04735045555641457
0.03953269639215714
0.05851957547920959
0.05012205295049008
0.05901636047714379
0.06875262067138911
0.04465871532742705
0.025785660071387228
0.01726669983980239
0.05584324314446351
0.04191053986692685
0.0421484576029328
0.07419251843287003
0.05812518451262804
0.05991768281149625
0.07981363857641861
0.026413239624020035
0.011146182877376305
-0.004082456456392171
0.008386325283997884
0.020527231937203422
0.009729828472859777
-0.0026623546514202502
0.01990599471083476
0.010835485421960752
0.022251274601371926
-0.028535887094240237
-0.019663617020312118
0.005502691533002076
-0.003537155486192412
-0.010938196581273159
-0.03378145575614665
-0.0448511845996122
-0.019762577626541704
0.00803255791749367
-0.04891021133078607
-0.046364596483706194
-0.042969349176835904
-0.06699572890860275
0.0028520550797218203
-0.01310485490615673
0.039621033925047976
0.04428509047192963
-0.06696586254793967
-0.04575374119703488
0.04428506107178932
0.0625763862232145
0.07458705118457688
0.035053659456252134
0.02898488695979803
0.04882633841919271
0.03403265024682097
0.034290277802211465
0.027796316417689804
0.014444814870386924
0.020878732962549166
0.050611859582434936
0.040506682683446586
0.0492548797017398
0.04693140767790459
0.05670924666828047
0.05742591709359261
0.06075696294424494
0.05897971087779682
0.06879897866779286
0.07056772356410115
0.03592812817011892
0.034857274070724704
0.026326603414886064
0.05084775355159499
0.03708710441650363
0.04917613147051478
0.038153613872094046
-0.008720012379573849
-0.03589546294258339
0.012006437687481754
-0.029573098311205328
-0.015407633368582028
-0.02070733827548356
-0.006592058979824175
0.004092742913809482
0.04081258113557243
0.023725656607318287
0.037123005990156714
0.028192769991863598
0.030846282831699563
0.02474360522836421
-0.0032612789326996786
0.003925207349164715
-0.005782696689251895
0.010717918130561072
-0.003555768981354517
-0.011991030219328326
0.008235223563050283
-0.02228796108688687
-0.022792483889039223
-0.09812781085197869
-0.0786373478086049
-0.0765501619369445
-0.08283259845995582
-0.004395139319526662
-0.030805696556133817
-0.0496762254761609
-0.06133555849700858
-0.07120961326709653
-0.03915008246921545
-0.06374601753524847
-0.09746271272254346
-0.06768791359995295
-0.043753675237504
-0.032686206789358865
-0.06471264092816485
-0.04757734377708068
0.025304399557509724
0.004320811464043854
2.4563212657466993E-4
0.019617585539382972
0.009440914279733205
0.020524617476633332
-0.026539069446206306
-0.03563834215509586
-0.028424055745034472
-0.03991843007008785
-0.01688634226290849
-0.014905955293644952
-0.042823866923617955
-0.025901721106267102
-0.0026968621788546524
0.008320205516397826
-0.018609811855913375
-0.008024939749301536
-0.059426007858605905
-0.05545314527857824
-0.049641783940722044
-0.06953263138634541
-0.11008181125972848
-0.1046456074146578
-0.10533922631030877
-0.08709620961707594
-0.07828169289545112
-0.09834027746572159
-0.11240813184687866
-0.10442093167200323
-0.11543839299888116
-0.026786973033003446
-0.08976220139163457
-0.09485828993737179
-0.11275188081055518
-0.12084675082166506
-0.11932550377099409
-0.06027437703268834
-0.09052046369951944
-0.08999611925313977
-0.12537234412081266
-0.09009371604740807
-0.06674255784147708
-0.09664200516818315
-0.039993723533351844
0.04865068865869616
0.06353980405031627
0.0542776321177385
0.06615884032121898
0.07952835302265347
0.03971171228118228
0.02568646358215957
0.028080466193381896
0.011709752579013388
0.018052734258688145
0.05906633603809342
0.04460759736381136
0.06332648910233694
0.046662375396437666
0.08456288065384693
0.06917137547619648
0.08959342016750531
0.027520583596251716
0.007420793830035825
0.03221451588431752
0.023351469251737964
0.018562837442462687
0.025387151637671104
-0.025799351404759873
-0.005612217395660433
-0.014363475077100877
0.018599550220932844
0.006672077774735052
-0.008683511863470108
-0.042654662224631906
-0.018970762841892624
0.019142039180148996
0.006034996623655934
-0.1055208303262824
-0.0955529667443046
-0.05369351535440961
-0.0731819828891105
-0.045188788263017456
0.001445999845682654
0.056998084174238
-0.06886421234554968
-0.08489052836664429
-0.023344048465162307
-0.04402297518476731
0.05422300210763288
0.05697102919142449
0.05921194360409484
0.07448165818109122
0.08090118376014097
0.0846879386461881
0.029767598185734826
0.042623253484710494
0.04391403434476559
0.03302845287051124
0.05836026845974255
0.041042045711776505
0.041244429626258884
0.02413641636311511
0.024720679666760167
0.036432134331504794
0.034846701968589265
0.042312110627724525
0.0627028875477869
0.061461685747567545
0.05748468554071719
0.06732744735279386
0.07099770497074422
0.0726054306440633
0.0652423349676474
0.07732501141419133
0.05875577525564764
0.04002783211570568
0.05295823123501387
0.04741328920359856
-0.01411549501164122
0.012083513611655073
-0.012754769446017701
0.004665473717799771
0.03969075714040148
0.04021415449685171
0.05726960992950305
0.03326233975609382
0.036988971476730546
0.024611416203569807
0.004914586560166721
-8.01337823385193E-4
0.008675845262038072
-0.00464397606435378
0.0121835800740037
-0.06634202617497328
-0.05989296801353339
-0.02780765956751691
-0.03771830529921006
-0.06936351483405813
-0.08959592679054512
-0.08639356467496608
-0.0837865270294378
-0.05161198442666393
-0.07870003703044628
-0.09058460816678907
-0.11135165351249024
0.03075410228486216
0.00513040570137709
0.02529828268820516
0.01905859003023215
-0.020558470030689332
-0.0030545344629839114
-0.03177390199111108
-0.026094848706409334
-0.04396893346683727
-0.03896234375459542
-0.047446617240731355
-0.06218830967608297
-0.03692460302693067
-0.054540237153779904
0.012390511156991675
0.03071472430086182
-0.0012203517764196115
0.013437003286132393
0.024487939008807354
-0.02547109068742381
-0.019661574705542147
-0.03900876131374941
-0.041089966212111625
-0.010802603106930615
0.005390010253205509
-0.027906796833980885
-0.0024051365743094637
0.007607641401468389
-0.12425143798955672
-0.019117398789593128
-0.010919222357146015
-0.06078399380069311
-0.06308291195897418
-0.08803675036754649
-0.0952557551855963
-0.1185304076151117
-0.10254628596355303
-0.11931766966049671
-0.09559179269350841
-0.11565522564538404
-0.126459455297637
-0.1178473896203656
-0.1295887280161421
-0.018489949411844783
-0.1268059594460103
-0.13342430876960654
-0.13497732599524934
-0.0967571622037315
-0.06898076735215018
-0.13953156376547401
-0.10157755045573034
-0.08471680147740025
-0.11620741432361387
-0.0761758189051695
-0.09578677010953046
-0.052385911277425444
-0.10339723846762851
-0.10845700673798282
-0.04637123139416127
0.05593572132697015
0.06786845366587448
0.07672646092950511
0.0488155263365233
0.07444427058661442
0.08929353994594973
0.04792456517033505
0.0325279963898153
0.03408238769853437
0.07210896500408691
0.05884341412751546
0.06975667536817898
0.049675449987113714
0.06974710650653247
0.0937303123539016
0.0981465656204472
0.0418494535512468
0.02763772589337656
0.040101090899866916
0.026252956381325562
0.022796550252089112
-0.012113268074581122
-0.025984149287548372
-0.03339255361585587
0.01581945516735789
0.024127681264463505
-0.005597740156743526
0.0220883669432228
0.030079790593399523
0.0031310649657567556
-0.013094600854349018
0.020412744559904102
-0.025675351063370475
-0.04133732772809681
-0.016030598563829768
0.003729386970193373
-0.10548333216097462
-0.0770323614973311
-0.054519324643459
-0.07861255228044685
-0.06572550343974128
-0.003207935803496362
0.07564975875403133
0.06890707534204056
-0.0562950124268684
-0.07534882830145471
-0.025204226955312218
-0.037960951969879544
-0.02253744236253051
0.059271897816007765
0.06580878101853932
0.07850401157422192
0.08690311223511837
0.09034452881858453
0.0938162122641014
0.04958782481296568
0.06683777137156094
0.04909533676433038
0.04816457943152195
0.03582013113814166
0.04824389387912376
0.045486261925275356
0.055992920737839715
0.07419598103193795
0.06951316752142361
0.07842378793174867
0.08335761856356126
0.06403012035343525
0.05992536941057438
0.05585080311102738
0.008673715751299806
-0.009266819537064623
0.04252113148006
0.03426583007553841
0.0538377460693378
0.06858933539703195
0.05070981370748653
0.06990351996975713
0.06297027749924536
0.021673661002478847
0.03321458622078529
0.04272774167100323
0.023287054122724152
0.010961166175029067
0.021136446979400716
0.037857666697984634
0.027071380907085933
0.037472699293977264
-0.06381178787339141
-0.06635868316484601
-0.09187187607408935
-0.05437297962182138
-0.05351483837677604
-0.07098693421821343
-0.03353047595380536
-0.08670338691201214
-0.07331315994680755
-0.060156857439032645
-0.10474131965559462
-0.09734790824495555
-0.08998947395285574
-0.12536515028754566
0.04493758668007774
0.00879815794526883
0.03305933122938976
0.014169713765874559
-0.0024306014117749662
-0.016450262587258065
-0.011139307409305653
-0.023881679192062518
-0.03206010387234718
-0.03733112152935691
-0.051515259294565324
-0.04971541102264477
-0.04584023881610203
-0.04869713393785205
-0.06366745188752952
0.010687548133105408
-0.0018638445622982918
0.014677045244828936
0.026212981226781267
-0.02297325427305052
-0.004366079460052986
-0.026309655656723486
-0.029444470697812093
-0.006602933633393724
0.008262230794816656
-0.13260038868471108
-0.1384835463452228
-0.013469213044397169
-0.07266782500748371
-0.10609045927237036
-0.09337874557629021
-0.11479643911568303
-0.09714367460205015
-0.13341833943863748
-0.11681587832042385
-0.14084308574122756
-0.14766688433160846
-0.12865897699035556
-0.1439770989473335
-0.023198031595061782
-0.11347269061438274
-0.07876983183496956
-0.15385854169048982
-0.14092808334474702
-0.12670827699631995
-0.14907765793371502
-0.06973672857961712
-0.0790663633297322
-0.10468270022190704
-0.09164848684269616
-0.07941785749001669
-0.060289474910305944
-0.0680659803605521
-0.10153319508251739
-0.07656609319663307
-0.12156566539294687
-0.13614772679122433
-0.054315913229299524
-0.08918117406927352
0.053481613247494605
0.08302400448229187
0.07867247733824362
0.06920432344928097
0.09789895906428808
0.06129003294711601
0.07506163684743172
0.051675220088797096
0.083261053713078
0.08052697990794207
0.101636729740479
0.10542142821440945
0.05808623659303104
0.04280465645997775
0.05913460460446081
0.027206882242795508
0.05285038666107763
0.07920515093143131
0.03107469122953591
-0.0076861174953397875
0.014132375165070604
-0.029776642252870914
-0.0480072771017055
0.037989637560376835
0.046736571400387984
0.0020435564587604183
0.02507902753815838
0.016681398348025525
-0.006276805946608424
0.013648203520522682
0.01939010233559184
-0.029626320449620776
-0.02920206126299873
-0.011664926853222376
7.540346710058877E-4
-0.0032692369055674093
-0.15527591569508273
-0.13517169649170205
-0.09349069431027184
-0.09428454007643887
-0.12268824098670485
-0.04818991222907364
-0.01640114256887853
-0.034185534935206874
-0.06438150435605804
-0.08210736970677025
-0.08158928899506847
0.06754932739695473
0.10169902620192327
0.09250684946693281
0.07982035228150906
-0.009010993826619206
0.002422424809937556
-0.04686358896289485
-0.0023664329780262792
-0.02057969626240165
-0.012445270101750568
-0.03935695081962961
0.08210146418701333
0.0862364186528472